# vtk DataFile Version 2.0
Unstructured Grid Example
ASCII
DATASET UNSTRUCTURED_GRID
POINTS 121 float
0.0 0.0 0.0
0.0 0.2 0.0
0.0 0.4 0.0
0.0 0.6 0.0
0.0 0.8 0.0
0.0 1.0 0.0
0.0 1.2 0.0
0.0 1.4 0.0
0.0 1.6 0.0
0.0 1.8 0.0
0.0 2.0 0.0
0.1 0.0 0.0
0.1 0.2 0.0
0.1 0.4 0.0
0.1 0.6 0.0
0.1 0.8 0.0
0.1 1.0 0.0
0.1 1.2 0.0
0.1 1.4 0.0
0.1 1.6 0.0
0.1 1.8 0.0
0.1 2.0 0.0
0.2 0.0 0.0
0.2 0.2 0.0
0.2 0.4 0.0
0.2 0.6 0.0
0.2 0.8 0.0
0.2 1.0 0.0
0.2 1.2 0.0
0.2 1.4 0.0
0.2 1.6 0.0
0.2 1.8 0.0
0.2 2.0 0.0
0.3 0.0 0.0
0.3 0.2 0.0
0.3 0.4 0.0
0.3 0.6 0.0
0.3 0.8 0.0
0.3 1.0 0.0
0.3 1.2 0.0
0.3 1.4 0.0
0.3 1.6 0.0
0.3 1.8 0.0
0.3 2.0 0.0
0.4 0.0 0.0
0.4 0.2 0.0
0.4 0.4 0.0
0.4 0.6 0.0
0.4 0.8 0.0
0.4 1.0 0.0
0.4 1.2 0.0
0.4 1.4 0.0
0.4 1.6 0.0
0.4 1.8 0.0
0.4 2.0 0.0
0.5 0.0 0.0
0.5 0.2 0.0
0.5 0.4 0.0
0.5 0.6 0.0
0.5 0.8 0.0
0.5 1.0 0.0
0.5 1.2 0.0
0.5 1.4 0.0
0.5 1.6 0.0
0.5 1.8 0.0
0.5 2.0 0.0
0.6 0.0 0.0
0.6 0.2 0.0
0.6 0.4 0.0
0.6 0.6 0.0
0.6 0.8 0.0
0.6 1.0 0.0
0.6 1.2 0.0
0.6 1.4 0.0
0.6 1.6 0.0
0.6 1.8 0.0
0.6 2.0 0.0
0.7 0.0 0.0
0.7 0.2 0.0
0.7 0.4 0.0
0.7 0.6 0.0
0.7 0.8 0.0
0.7 1.0 0.0
0.7 1.2 0.0
0.7 1.4 0.0
0.7 1.6 0.0
0.7 1.8 0.0
0.7 2.0 0.0
0.8 0.0 0.0
0.8 0.2 0.0
0.8 0.4 0.0
0.8 0.6 0.0
0.8 0.8 0.0
0.8 1.0 0.0
0.8 1.2 0.0
0.8 1.4 0.0
0.8 1.6 0.0
0.8 1.8 0.0
0.8 2.0 0.0
0.9 0.0 0.0
0.9 0.2 0.0
0.9 0.4 0.0
0.9 0.6 0.0
0.9 0.8 0.0
0.9 1.0 0.0
0.9 1.2 0.0
0.9 1.4 0.0
0.9 1.6 0.0
0.9 1.8 0.0
0.9 2.0 0.0
1.0 0.0 0.0
1.0 0.2 0.0
1.0 0.4 0.0
1.0 0.6 0.0
1.0 0.8 0.0
1.0 1.0 0.0
1.0 1.2 0.0
1.0 1.4 0.0
1.0 1.6 0.0
1.0 1.8 0.0
1.0 2.0 0.0
CELLS 100 500
4 0 11 12 1
4 1 12 13 2
4 2 13 14 3
4 3 14 15 4
4 4 15 16 5
4 5 16 17 6
4 6 17 18 7
4 7 18 19 8
4 8 19 20 9
4 9 20 21 10
4 11 22 23 12
4 12 23 24 13
4 13 24 25 14
4 14 25 26 15
4 15 26 27 16
4 16 27 28 17
4 17 28 29 18
4 18 29 30 19
4 19 30 31 20
4 20 31 32 21
4 22 33 34 23
4 23 34 35 24
4 24 35 36 25
4 25 36 37 26
4 26 37 38 27
4 27 38 39 28
4 28 39 40 29
4 29 40 41 30
4 30 41 42 31
4 31 42 43 32
4 33 44 45 34
4 34 45 46 35
4 35 46 47 36
4 36 47 48 37
4 37 48 49 38
4 38 49 50 39
4 39 50 51 40
4 40 51 52 41
4 41 52 53 42
4 42 53 54 43
4 44 55 56 45
4 45 56 57 46
4 46 57 58 47
4 47 58 59 48
4 48 59 60 49
4 49 60 61 50
4 50 61 62 51
4 51 62 63 52
4 52 63 64 53
4 53 64 65 54
4 55 66 67 56
4 56 67 68 57
4 57 68 69 58
4 58 69 70 59
4 59 70 71 60
4 60 71 72 61
4 61 72 73 62
4 62 73 74 63
4 63 74 75 64
4 64 75 76 65
4 66 77 78 67
4 67 78 79 68
4 68 79 80 69
4 69 80 81 70
4 70 81 82 71
4 71 82 83 72
4 72 83 84 73
4 73 84 85 74
4 74 85 86 75
4 75 86 87 76
4 77 88 89 78
4 78 89 90 79
4 79 90 91 80
4 80 91 92 81
4 81 92 93 82
4 82 93 94 83
4 83 94 95 84
4 84 95 96 85
4 85 96 97 86
4 86 97 98 87
4 88 99 100 89
4 89 100 101 90
4 90 101 102 91
4 91 102 103 92
4 92 103 104 93
4 93 104 105 94
4 94 105 106 95
4 95 106 107 96
4 96 107 108 97
4 97 108 109 98
4 99 110 111 100
4 100 111 112 101
4 101 112 113 102
4 102 113 114 103
4 103 114 115 104
4 104 115 116 105
4 105 116 117 106
4 106 117 118 107
4 107 118 119 108
4 108 119 120 109
CELL_TYPES 100
9 9 9 9 9 9 9 9 9 9 9 9 9 9 9 9 9 9 9 9 9 9 9 9 9 9 9 9 9 9 9 9 9 9 9 9 9 9 9 9 9 9 9 9 9 9 9 9 9 9 9 9 9 9 9 9 9 9 9 9 9 9 9 9 9 9 9 9 9 9 9 9 9 9 9 9 9 9 9 9 9 9 9 9 9 9 9 9 9 9 9 9 9 9 9 9 9 9 9 9
POINT_DATA 121
SCALARS Scalars0 float 1
LOOKUP_TABLE default
4.39190687495 3.36090029598 2.5190284672 1.85830576674 1.35304099722 0.971213219998 0.682205939439 0.459979249388 0.28332894925 0.13492133051 0.0 4.36987743593 3.33649310541 2.49591718969 1.83873505734 1.33767550247 0.959745119311 0.673989818111 0.454384135488 0.279865555552 0.133268337925 0.0 4.30273220212 3.26227517702 2.4260216751 1.77989840952 1.29169177942 0.925518990249 0.649504306186 0.437721801341 0.269555245915 0.128348295445 0.0 4.187140071 3.13514918759 2.30767140093 1.68148686599 1.21547256136 0.869086533813 0.609242279788 0.410361420032 0.252636843504 0.120277433945 0.0 4.01695535473 2.94957179112 2.13816193555 1.54322056283 1.10980158509 0.791419827475 0.554037783101 0.37291813231 0.229505509467 0.10924748705 0.0 3.78207365653 2.69691185153 1.91401212316 1.36526759496 0.976066743067 0.69397394581 0.485079187196 0.326250625425 0.200707654768 0.0955224966612 0.0 3.46609198687 2.36443971668 1.63172193699 1.14893362876 0.816486658578 0.578746075814 0.40391775471 0.271453613084 0.166932542588 0.0794339576106 0.0 3.04108088907 1.93409240519 1.28979028498 0.897555577761 0.6342618717 0.44831979241 0.312461868165 0.209842470143 0.128999764792 0.061374030266 0.0 2.45363592733 1.38290074268 0.893433043389 0.61693263303 0.433619175469 0.3058865968 0.212942259094 0.142930431014 0.087841187648 0.0417868722913 0.0 1.57716754357 0.698535778244 0.461463486766 0.313636725592 0.220248746492 0.155066960912 0.10788652639 0.0723869667821 0.0444796227635 0.0211575914816 0.0 0.0 0.0 0.0 0.0 0.0 0.0 0.0 0.0 0.0 0.0 0.0