# vtk DataFile Version 2.0
t = 0.0000 s
ASCII

DATASET STRUCTURED_POINTS
DIMENSIONS 2 2 2
ORIGIN 0 0 0
SPACING 5.000000E-01 5.000000E-01 5.000000E-01

POINT_DATA 8


POINT_DATA 27
SCALARS conc float
LOOKUP_TABLE default
0.0
1.0
2.0
3.0
4.0
5.0
6.0
7.0
8.0
9.0
10.0
11.0
12.0
13.0
14.0
15.0
16.0
17.0
18.0
19.0
20.0
21.0
22.0
23.0
24.0
25.0
26.0

VECTORS displ float
1 0 0
1 1 0
0 2 0
1 0 0
1 1 0
0 2 0
1 0 0
1 1 0
0 2 0
1 0 0
1 1 0
0 2 0
0 0 1
0 0 1
0 0 1
0 0 1
0 0 1
0 0 1
0 0 1
0 0 1
0 0 1
0 0 1
0 0 1
0 0 1
0 0 1
0 0 1
0 0 1

