# vtk DataFile Version 2.0
Unstructured Grid Example
ASCII
DATASET UNSTRUCTURED_GRID
POINTS 21142 float
0.001 0.014 0.004
0.001 0.015 0.004
0.0 0.015 0.004
0.0 0.014 0.004
0.002 0.014 0.004
0.002 0.015 0.004
0.003 0.014 0.004
0.003 0.015 0.004
0.004 0.014 0.004
0.004 0.015 0.004
0.005 0.014 0.004
0.005 0.015 0.004
0.006 0.014 0.004
0.006 0.015 0.004
0.007 0.014 0.004
0.007 0.015 0.004
0.008 0.014 0.004
0.008 0.015 0.004
0.009 0.014 0.004
0.009 0.015 0.004
0.01 0.014 0.004
0.01 0.015 0.004
0.011 0.014 0.004
0.011 0.015 0.004
0.012 0.014 0.004
0.012 0.015 0.004
0.013 0.014 0.004
0.013 0.015 0.004
0.014 0.014 0.004
0.014 0.015 0.004
0.015 0.014 0.004
0.015 0.015 0.004
0.001 0.013 0.004
0.0 0.013 0.004
0.002 0.013 0.004
0.003 0.013 0.004
0.004 0.013 0.004
0.005 0.013 0.004
0.006 0.013 0.004
0.007 0.013 0.004
0.008 0.013 0.004
0.009 0.013 0.004
0.01 0.013 0.004
0.011 0.013 0.004
0.012 0.013 0.004
0.013 0.013 0.004
0.014 0.013 0.004
0.015 0.013 0.004
0.001 0.012 0.004
0.0 0.012 0.004
0.002 0.012 0.004
0.003 0.012 0.004
0.004 0.012 0.004
0.005 0.012 0.004
0.006 0.012 0.004
0.007 0.012 0.004
0.008 0.012 0.004
0.009 0.012 0.004
0.01 0.012 0.004
0.011 0.012 0.004
0.012 0.012 0.004
0.013 0.012 0.004
0.014 0.012 0.004
0.015 0.012 0.004
0.001 0.011 0.004
0.0 0.011 0.004
0.002 0.011 0.004
0.003 0.011 0.004
0.004 0.011 0.004
0.005 0.011 0.004
0.006 0.011 0.004
0.007 0.011 0.004
0.008 0.011 0.004
0.009 0.011 0.004
0.01 0.011 0.004
0.011 0.011 0.004
0.012 0.011 0.004
0.013 0.011 0.004
0.014 0.011 0.004
0.015 0.011 0.004
0.001 0.01 0.004
0.0 0.01 0.004
0.002 0.01 0.004
0.003 0.01 0.004
0.004 0.01 0.004
0.005 0.01 0.004
0.006 0.01 0.004
0.007 0.01 0.004
0.008 0.01 0.004
0.009 0.01 0.004
0.01 0.01 0.004
0.011 0.01 0.004
0.012 0.01 0.004
0.013 0.01 0.004
0.014 0.01 0.004
0.015 0.01 0.004
0.001 0.009 0.004
0.0 0.009 0.004
0.002 0.009 0.004
0.003 0.009 0.004
0.004 0.009 0.004
0.005 0.009 0.004
0.006 0.009 0.004
0.007 0.009 0.004
0.008 0.009 0.004
0.009 0.009 0.004
0.01 0.009 0.004
0.011 0.009 0.004
0.012 0.009 0.004
0.013 0.009 0.004
0.014 0.009 0.004
0.015 0.009 0.004
0.001 0.008 0.004
0.0 0.008 0.004
0.002 0.008 0.004
0.003 0.008 0.004
0.004 0.008 0.004
0.005 0.008 0.004
0.006 0.008 0.004
0.007 0.008 0.004
0.008 0.008 0.004
0.009 0.008 0.004
0.01 0.008 0.004
0.011 0.008 0.004
0.012 0.008 0.004
0.013 0.008 0.004
0.014 0.008 0.004
0.015 0.008 0.004
0.001 0.007 0.004
0.0 0.007 0.004
0.002 0.007 0.004
0.003 0.007 0.004
0.004 0.007 0.004
0.005 0.007 0.004
0.006 0.007 0.004
0.007 0.007 0.004
0.008 0.007 0.004
0.009 0.007 0.004
0.01 0.007 0.004
0.011 0.007 0.004
0.012 0.007 0.004
0.013 0.007 0.004
0.014 0.007 0.004
0.015 0.007 0.004
0.001 0.006 0.004
0.0 0.006 0.004
0.002 0.006 0.004
0.003 0.006 0.004
0.004 0.006 0.004
0.005 0.006 0.004
0.006 0.006 0.004
0.007 0.006 0.004
0.008 0.006 0.004
0.009 0.006 0.004
0.01 0.006 0.004
0.011 0.006 0.004
0.012 0.006 0.004
0.013 0.006 0.004
0.014 0.006 0.004
0.015 0.006 0.004
0.001 0.005 0.004
0.0 0.005 0.004
0.002 0.005 0.004
0.003 0.005 0.004
0.004 0.005 0.004
0.005 0.005 0.004
0.006 0.005 0.004
0.007 0.005 0.004
0.008 0.005 0.004
0.009 0.005 0.004
0.01 0.005 0.004
0.011 0.005 0.004
0.012 0.005 0.004
0.013 0.005 0.004
0.014 0.005 0.004
0.015 0.005 0.004
0.001 0.004 0.004
0.0 0.004 0.004
0.002 0.004 0.004
0.003 0.004 0.004
0.004 0.004 0.004
0.005 0.004 0.004
0.006 0.004 0.004
0.007 0.004 0.004
0.008 0.004 0.004
0.009 0.004 0.004
0.01 0.004 0.004
0.011 0.004 0.004
0.012 0.004 0.004
0.013 0.004 0.004
0.014 0.004 0.004
0.015 0.004 0.004
0.001 0.003 0.004
0.0 0.003 0.004
0.002 0.003 0.004
0.003 0.003 0.004
0.004 0.003 0.004
0.005 0.003 0.004
0.006 0.003 0.004
0.007 0.003 0.004
0.008 0.003 0.004
0.009 0.003 0.004
0.01 0.003 0.004
0.011 0.003 0.004
0.012 0.003 0.004
0.013 0.003 0.004
0.014 0.003 0.004
0.015 0.003 0.004
0.001 0.002 0.004
0.0 0.002 0.004
0.002 0.002 0.004
0.003 0.002 0.004
0.004 0.002 0.004
0.005 0.002 0.004
0.006 0.002 0.004
0.007 0.002 0.004
0.008 0.002 0.004
0.009 0.002 0.004
0.01 0.002 0.004
0.011 0.002 0.004
0.012 0.002 0.004
0.013 0.002 0.004
0.014 0.002 0.004
0.015 0.002 0.004
0.001 0.001 0.004
0.0 0.001 0.004
0.002 0.001 0.004
0.003 0.001 0.004
0.004 0.001 0.004
0.005 0.001 0.004
0.006 0.001 0.004
0.007 0.001 0.004
0.008 0.001 0.004
0.009 0.001 0.004
0.01 0.001 0.004
0.011 0.001 0.004
0.012 0.001 0.004
0.013 0.001 0.004
0.014 0.001 0.004
0.015 0.001 0.004
0.001 0.0 0.004
0.0 0.0 0.004
0.002 0.0 0.004
0.003 0.0 0.004
0.004 0.0 0.004
0.005 0.0 0.004
0.006 0.0 0.004
0.007 0.0 0.004
0.008 8.6736e-19 0.004
0.009 0.0 0.004
0.01 8.6736e-19 0.004
0.011 8.6736e-19 0.004
0.012 1.7347e-18 0.004
0.013 1.7347e-18 0.004
0.014 1.7347e-18 0.004
0.015 0.0 0.004
0.001 -0.001 0.004
0.0 -0.001 0.004
0.002 -0.001 0.004
0.003 -0.001 0.004
0.004 -0.001 0.004
0.005 -0.001 0.004
0.006 -0.001 0.004
0.007 -0.001 0.004
0.008 -0.001 0.004
0.009 -0.001 0.004
0.01 -0.001 0.004
0.011 -0.001 0.004
0.012 -0.001 0.004
0.013 -0.001 0.004
0.014 -0.001 0.004
0.015 -0.001 0.004
0.001 -0.002 0.004
0.0 -0.002 0.004
0.002 -0.002 0.004
0.003 -0.002 0.004
0.004 -0.002 0.004
0.005 -0.002 0.004
0.006 -0.002 0.004
0.007 -0.002 0.004
0.008 -0.002 0.004
0.009 -0.002 0.004
0.01 -0.002 0.004
0.011 -0.002 0.004
0.012 -0.002 0.004
0.013 -0.002 0.004
0.014 -0.002 0.004
0.015 -0.002 0.004
0.001 -0.003 0.004
0.0 -0.003 0.004
0.002 -0.003 0.004
0.003 -0.003 0.004
0.004 -0.003 0.004
0.005 -0.003 0.004
0.006 -0.003 0.004
0.007 -0.003 0.004
0.008 -0.003 0.004
0.009 -0.003 0.004
0.01 -0.003 0.004
0.011 -0.003 0.004
0.012 -0.003 0.004
0.013 -0.003 0.004
0.014 -0.003 0.004
0.015 -0.003 0.004
0.001 -0.004 0.004
0.0 -0.004 0.004
0.002 -0.004 0.004
0.003 -0.004 0.004
0.004 -0.004 0.004
0.005 -0.004 0.004
0.006 -0.004 0.004
0.007 -0.004 0.004
0.008 -0.004 0.004
0.009 -0.004 0.004
0.01 -0.004 0.004
0.011 -0.004 0.004
0.012 -0.004 0.004
0.013 -0.004 0.004
0.014 -0.004 0.004
0.015 -0.004 0.004
0.001 -0.005 0.004
0.0 -0.005 0.004
0.002 -0.005 0.004
0.003 -0.005 0.004
0.004 -0.005 0.004
0.005 -0.005 0.004
0.006 -0.005 0.004
0.007 -0.005 0.004
0.008 -0.005 0.004
0.009 -0.005 0.004
0.01 -0.005 0.004
0.011 -0.005 0.004
0.012 -0.005 0.004
0.013 -0.005 0.004
0.014 -0.005 0.004
0.015 -0.005 0.004
0.001 -0.006 0.004
0.0 -0.006 0.004
0.002 -0.006 0.004
0.003 -0.006 0.004
0.004 -0.006 0.004
0.005 -0.006 0.004
0.006 -0.006 0.004
0.007 -0.006 0.004
0.008 -0.006 0.004
0.009 -0.006 0.004
0.01 -0.006 0.004
0.011 -0.006 0.004
0.012 -0.006 0.004
0.013 -0.006 0.004
0.014 -0.006 0.004
0.015 -0.006 0.004
0.001 -0.007 0.004
0.0 -0.007 0.004
0.002 -0.007 0.004
0.003 -0.007 0.004
0.004 -0.007 0.004
0.005 -0.007 0.004
0.006 -0.007 0.004
0.007 -0.007 0.004
0.008 -0.007 0.004
0.009 -0.007 0.004
0.01 -0.007 0.004
0.011 -0.007 0.004
0.012 -0.007 0.004
0.013 -0.007 0.004
0.014 -0.007 0.004
0.015 -0.007 0.004
0.001 -0.008 0.004
0.0 -0.008 0.004
0.002 -0.008 0.004
0.003 -0.008 0.004
0.004 -0.008 0.004
0.005 -0.008 0.004
0.006 -0.008 0.004
0.007 -0.008 0.004
0.008 -0.008 0.004
0.009 -0.008 0.004
0.01 -0.008 0.004
0.011 -0.008 0.004
0.012 -0.008 0.004
0.013 -0.008 0.004
0.014 -0.008 0.004
0.015 -0.008 0.004
0.001 -0.009 0.004
0.0 -0.009 0.004
0.002 -0.009 0.004
0.003 -0.009 0.004
0.004 -0.009 0.004
0.005 -0.009 0.004
0.006 -0.009 0.004
0.007 -0.009 0.004
0.008 -0.009 0.004
0.009 -0.009 0.004
0.01 -0.009 0.004
0.011 -0.009 0.004
0.012 -0.009 0.004
0.013 -0.009 0.004
0.014 -0.009 0.004
0.015 -0.009 0.004
0.001 -0.01 0.004
0.0 -0.01 0.004
0.002 -0.01 0.004
0.003 -0.01 0.004
0.004 -0.01 0.004
0.005 -0.01 0.004
0.006 -0.01 0.004
0.007 -0.01 0.004
0.008 -0.01 0.004
0.009 -0.01 0.004
0.01 -0.01 0.004
0.011 -0.01 0.004
0.012 -0.01 0.004
0.013 -0.01 0.004
0.014 -0.01 0.004
0.015 -0.01 0.004
0.001 -0.011 0.004
0.0 -0.011 0.004
0.002 -0.011 0.004
0.003 -0.011 0.004
0.004 -0.011 0.004
0.005 -0.011 0.004
0.006 -0.011 0.004
0.007 -0.011 0.004
0.008 -0.011 0.004
0.009 -0.011 0.004
0.01 -0.011 0.004
0.011 -0.011 0.004
0.012 -0.011 0.004
0.013 -0.011 0.004
0.014 -0.011 0.004
0.015 -0.011 0.004
0.001 -0.012 0.004
0.0 -0.012 0.004
0.002 -0.012 0.004
0.003 -0.012 0.004
0.004 -0.012 0.004
0.005 -0.012 0.004
0.006 -0.012 0.004
0.007 -0.012 0.004
0.008 -0.012 0.004
0.009 -0.012 0.004
0.01 -0.012 0.004
0.011 -0.012 0.004
0.012 -0.012 0.004
0.013 -0.012 0.004
0.014 -0.012 0.004
0.015 -0.012 0.004
0.001 -0.013 0.004
0.0 -0.013 0.004
0.002 -0.013 0.004
0.003 -0.013 0.004
0.004 -0.013 0.004
0.005 -0.013 0.004
0.006 -0.013 0.004
0.007 -0.013 0.004
0.008 -0.013 0.004
0.009 -0.013 0.004
0.01 -0.013 0.004
0.011 -0.013 0.004
0.012 -0.013 0.004
0.013 -0.013 0.004
0.014 -0.013 0.004
0.015 -0.013 0.004
0.001 -0.014 0.004
0.0 -0.014 0.004
0.002 -0.014 0.004
0.003 -0.014 0.004
0.004 -0.014 0.004
0.005 -0.014 0.004
0.006 -0.014 0.004
0.007 -0.014 0.004
0.008 -0.014 0.004
0.009 -0.014 0.004
0.01 -0.014 0.004
0.011 -0.014 0.004
0.012 -0.014 0.004
0.013 -0.014 0.004
0.014 -0.014 0.004
0.015 -0.014 0.004
0.001 -0.015 0.004
0.0 -0.015 0.004
0.002 -0.015 0.004
0.003 -0.015 0.004
0.004 -0.015 0.004
0.005 -0.015 0.004
0.006 -0.015 0.004
0.007 -0.015 0.004
0.008 -0.015 0.004
0.009 -0.015 0.004
0.01 -0.015 0.004
0.011 -0.015 0.004
0.012 -0.015 0.004
0.013 -0.015 0.004
0.014 -0.015 0.004
0.015 -0.015 0.004
0.0 0.014 0.001
0.0 0.014 0.0
0.0 0.015 0.0
0.0 0.015 0.001
0.0 0.013 0.001
0.0 0.013 0.0
0.0 0.012 0.001
0.0 0.012 0.0
0.0 0.011 0.001
0.0 0.011 0.0
0.0 0.01 0.001
0.0 0.01 0.0
0.0 0.009 0.001
0.0 0.009 0.0
0.0 0.008 0.001
0.0 0.008 0.0
0.0 0.007 0.001
0.0 0.007 0.0
0.0 0.006 0.001
0.0 0.006 0.0
0.0 0.005 0.001
0.0 0.005 0.0
0.0 0.004 0.001
0.0 0.004 0.0
0.0 0.003 0.001
0.0 0.003 0.0
0.0 0.002 0.001
0.0 0.002 0.0
0.0 0.001 0.001
0.0 0.001 0.0
0.0 -1.7347e-18 0.001
0.0 0.0 0.0
0.0 -0.001 0.001
0.0 -0.001 0.0
0.0 -0.002 0.001
0.0 -0.002 0.0
0.0 -0.003 0.001
0.0 -0.003 0.0
0.0 -0.004 0.001
0.0 -0.004 0.0
0.0 -0.005 0.001
0.0 -0.005 0.0
0.0 -0.006 0.001
0.0 -0.006 0.0
0.0 -0.007 0.001
0.0 -0.007 0.0
0.0 -0.008 0.001
0.0 -0.008 0.0
0.0 -0.009 0.001
0.0 -0.009 0.0
0.0 -0.01 0.001
0.0 -0.01 0.0
0.0 -0.011 0.001
0.0 -0.011 0.0
[...]
CELL_DATA 18000
SCALARS Scalars0 float 1
LOOKUP_TABLE default
727.48 727.5 727.51 727.52 727.53 727.53 727.54 727.54 727.54 727.54 727.54 727.54 727.54 727.54 727.55 727.55 727.54 727.54 727.54 727.54 727.54 727.54 727.54 727.54 727.54 727.53 727.53 727.52 727.51 727.5 727.45 727.47 727.48 727.49 727.5 727.5 727.51 727.51 727.51 727.51 727.51 727.51 727.52 727.52 727.52 727.52 727.52 727.52 727.52 727.51 727.51 727.51 727.51 727.51 727.51 727.5 727.5 727.49 727.48 727.47 727.4 727.42 727.43 727.44 727.45 727.46 727.46 727.46 727.46 727.47 727.47 727.47 727.47 727.47 727.47 727.47 727.47 727.47 727.47 727.47 727.47 727.47 727.47 727.46 727.46 727.46 727.45 727.44 727.43 727.42 727.34 727.36 727.38 727.39 727.4 727.4 727.41 727.41 727.41 727.41 727.41 727.42 727.42 727.42 727.42 727.42 727.42 727.42 727.42 727.42 727.41 727.41 727.41 727.41 727.41 727.4 727.4 727.39 727.37 727.36 727.28 727.3 727.31 727.33 727.34 727.34 727.34 727.35 727.35 727.35 727.36 727.36 727.36 727.36 727.36 727.36 727.36 727.36 727.36 727.36 727.35 727.35 727.35 727.35 727.35 727.34 727.33 727.33 727.31 727.3 727.21 727.23 727.25 727.26 727.27 727.27 727.28 727.28 727.29 727.29 727.29 727.29 727.29 727.3 727.3 727.3 727.3 727.29 727.29 727.29 727.29 727.29 727.29 727.28 727.28 727.28 727.27 727.26 727.24 727.23 727.14 727.15 727.17 727.19 727.19 727.2 727.2 727.21 727.21 727.21 727.22 727.22 727.22 727.22 727.22 727.22 727.22 727.22 727.22 727.22 727.21 727.21 727.21 727.21 727.2 727.2 727.19 727.18 727.17 727.16 727.05 727.07 727.08 727.1 727.11 727.11 727.12 727.12 727.12 727.12 727.12 727.13 727.13 727.13 727.13 727.13 727.13 727.13 727.13 727.13 727.12 727.12 727.12 727.12 727.12 727.11 727.1 727.09 727.08 727.07 726.94 726.96 726.97 726.99 726.99 727.0 727.0 727.0 727.01 727.01 727.01 727.01 727.01 727.01 727.01 727.01 727.01 727.01 727.01 727.01 727.01 727.01 727.0 727.0 727.0 727.0 726.99 726.98 726.97 726.96 726.8 726.81 726.83 726.84 726.84 726.84 726.85 726.85 726.85 726.85 726.85 726.85 726.86 726.86 726.86 726.86 726.86 726.86 726.86 726.85 726.85 726.85 726.85 726.85 726.85 726.84 726.84 726.83 726.82 726.82 726.6 726.61 726.62 726.62 726.62 726.63 726.63 726.63 726.63 726.63 726.63 726.64 726.64 726.64 726.64 726.64 726.64 726.64 726.64 726.64 726.63 726.63 726.63 726.63 726.63 726.62 726.62 726.62 726.62 726.62 726.31 726.31 726.31 726.31 726.31 726.31 726.31 726.32 726.32 726.32 726.32 726.32 726.32 726.32 726.32 726.32 726.32 726.32 726.32 726.32 726.32 726.32 726.32 726.31 726.31 726.31 726.31 726.31 726.31 726.31 725.86 725.85 725.85 725.85 725.86 725.86 725.86 725.86 725.86 725.86 725.86 725.86 725.86 725.86 725.86 725.86 725.86 725.86 725.86 725.86 725.86 725.86 725.86 725.86 725.86 725.86 725.85 725.85 725.85 725.86 725.2 725.2 725.2 725.2 725.2 725.2 725.2 725.2 725.2 725.2 725.2 725.2 725.2 725.2 725.21 725.21 725.21 725.2 725.2 725.2 725.2 725.2 725.2 725.2 725.2 725.2 725.2 725.2 725.2 725.2 724.27 724.27 724.27 724.27 724.27 724.27 724.27 724.27 724.27 724.27 724.27 724.27 724.27 724.27 724.27 724.27 724.27 724.27 724.27 724.27 724.27 724.27 724.27 724.27 724.27 724.27 724.27 724.27 724.27 724.27 726.37 726.39 726.41 726.42 726.43 726.44 726.45 726.45 726.45 726.46 726.46 726.46 726.46 726.46 726.46 726.46 726.46 726.46 726.46 726.46 726.46 726.46 726.46 726.46 726.45 726.45 726.44 726.43 726.42 726.4 726.29 726.3 726.32 726.34 726.35 726.35 726.36 726.36 726.37 726.37 726.37 726.37 726.37 726.37 726.37 726.37 726.37 726.37 726.37 726.37 726.37 726.37 726.37 726.37 726.37 726.36 726.35 726.34 726.33 726.32 726.16 726.17 726.19 726.21 726.22 726.22 726.23 726.23 726.24 726.24 726.24 726.24 726.24 726.24 726.25 726.25 726.25 726.24 726.24 726.24 726.24 726.24 726.24 726.24 726.23 726.23 726.22 726.21 726.2 726.18 726.01 726.02 726.04 726.06 726.07 726.07 726.08 726.08 726.09 726.09 726.09 726.09 726.1 726.1 726.1 726.1 726.1 726.1 726.1 726.1 726.09 726.09 726.09 726.09 726.08 726.08 726.07 726.06 726.05 726.03 725.85 725.86 725.88 725.9 725.91 725.92 725.92 725.93 725.93 725.93 725.94 725.94 725.94 725.94 725.94 725.94 725.94 725.94 725.94 725.94 725.94 725.93 725.93 725.93 725.93 725.92 725.91 725.9 725.89 725.87 725.68 725.7 725.72 725.73 725.74 725.75 725.76 725.76 725.76 725.77 725.77 725.77 725.78 725.78 725.78 725.78 725.78 725.78 725.77 725.77 725.77 725.77 725.77 725.76 725.76 725.75 725.74 725.73 725.72 725.71 725.51 725.52 725.54 725.55 725.56 725.57 725.58 725.58 725.59 725.59 725.59 725.6 725.6 725.6 725.6 725.6 725.6 725.6 725.6 725.6 725.59 725.59 725.59 725.58 725.58 725.57 725.57 725.55 725.54 725.53 725.32 725.33 725.35 725.36 725.37 725.38 725.39 725.39 725.4 725.4 725.4 725.41 725.41 725.41 725.42 725.42 725.41 725.41 725.41 725.41 725.4 725.4 725.4 725.39 725.39 725.38 725.37 725.36 725.35 725.34 725.11 725.12 725.14 725.15 725.16 725.17 725.18 725.18 725.19 725.19 725.19 725.2 725.2 725.2 725.21 725.21 725.2 725.2 725.2 725.2 725.19 725.19 725.18 725.18 725.18 725.17 725.16 725.15 725.14 725.13 724.88 724.89 724.9 724.92 724.93 724.94 724.94 724.95 724.95 724.96 724.96 724.96 724.97 724.97 724.98 724.98 724.97 724.97 724.97 724.96 724.96 724.95 724.95 724.95 724.94 724.93 724.92 724.91 724.9 724.9 724.62 724.63 724.64 724.66 724.67 724.67 724.68 724.69 724.69 724.69 724.7 724.7 724.71 724.71 724.71 724.71 724.71 724.71 724.7 724.7 724.7 724.69 724.69 724.68 724.68 724.67 724.66 724.65 724.64 724.63 724.33 724.34 724.36 724.37 724.38 724.38 724.39 724.39 724.4 724.4 724.4 724.41 724.41 724.41 724.42 724.42 724.42 724.41 724.41 724.41 724.4 724.4 724.39 724.39 724.39 724.38 724.37 724.36 724.35 724.34 724.02 724.03 724.04 724.05 724.05 724.06 724.06 724.07 724.07 724.07 724.08 724.08 724.08 724.08 724.09 724.09 724.08 724.08 724.08 724.08 724.07 724.07 724.07 724.06 724.06 724.06 724.05 724.04 724.03 724.03 723.68 723.69 723.7 723.7 723.71 723.71 723.71 723.71 723.72 723.72 723.72 723.72 723.72 723.72 723.72 723.72 723.72 723.72 723.72 723.72 723.72 723.72 723.72 723.71 723.71 723.71 723.71 723.7 723.7 723.69 723.36 723.36 723.36 723.37 723.37 723.37 723.37 723.37 723.37 723.37 723.37 723.37 723.37 723.37 723.37 723.37 723.37 723.37 723.37 723.37 723.37 723.37 723.37 723.37 723.37 723.37 723.37 723.37 723.36 723.36 725.46 725.47 725.48 725.49 725.5 725.51 725.52 725.52 725.52 725.53 725.53 725.53 725.53 725.53 725.53 725.53 725.53 725.53 725.53 725.53 725.53 725.53 725.53 725.53 725.53 725.52 725.51 725.5 725.49 725.48 725.34 725.35 725.36 725.37 725.38 725.39 725.39 725.4 725.4 725.4 725.4 725.4 725.4 725.4 725.4 725.4 725.4 725.41 725.41 725.41 725.41 725.41 725.41 725.4 725.4 725.4 725.39 725.38 725.37 725.37 725.16 725.17 725.19 725.2 725.21 725.21 725.22 725.22 725.22 725.22 725.22 725.23 725.23 725.23 725.23 725.23 725.23 725.23 725.23 725.23 725.23 725.23 725.23 725.23 725.22 725.22 725.21 725.21 725.2 725.19 724.97 724.98 724.99 725.0 725.01 725.02 725.02 725.03 725.03 725.03 725.03 725.03 725.03 725.03 725.03 725.03 725.03 725.03 725.03 725.03 725.03 725.03 725.03 725.03 725.03 725.02 725.02 725.01 725.0 725.0 724.78 724.79 724.8 724.81 724.82 724.82 724.83 724.83 724.83 724.84 724.84 724.84 724.84 724.84 724.84 724.84 724.84 724.84 724.84 724.84 724.84 724.84 724.84 724.84 724.83 724.83 724.82 724.82 724.81 724.8 724.59 724.6 724.61 724.62 724.63 724.63 724.64 724.64 724.64 724.65 724.65 724.65 724.65 724.65 724.65 724.65 724.65 724.65 724.65 724.65 724.65 724.65 724.65 724.64 724.64 724.64 724.63 724.62 724.62 724.61 724.41 724.41 724.42 724.43 724.44 724.45 724.45 724.45 724.46 724.46 724.46 724.47 724.47 724.47 724.47 724.47 724.47 724.47 724.47 724.47 724.46 724.46 724.46 724.46 724.45 724.45 724.44 724.44 724.43 724.42 724.23 724.23 724.24 724.25 724.26 724.26 724.27 724.27 724.28 724.28 724.28 724.29 724.29 724.29 724.29 724.29 724.29 724.29 724.29 724.28 724.28 724.28 724.28 724.27 724.27 724.26 724.26 724.25 724.24 724.24 724.05 724.05 724.06 724.07 724.08 724.08 724.09 724.09 724.1 724.1 724.1 724.11 724.11 724.11 724.11 724.11 724.11 724.11 724.11 724.11 724.1 724.1 724.1 724.09 724.09 724.08 724.08 724.07 724.06 724.06 723.87 723.87 723.88 723.89 723.9 723.91 723.91 723.92 723.92 723.92 723.93 723.93 723.93 723.94 723.94 723.94 723.94 723.94 723.93 723.93 723.93 723.92 723.92 723.92 723.91 723.91 723.9 723.89 723.88 723.88 723.7 723.71 723.72 723.72 723.73 723.74 723.74 723.75 723.75 723.75 723.76 723.76 723.76 723.77 723.77 723.77 723.77 723.76 723.76 723.76 723.76 723.75 723.75 723.75 723.74 723.74 723.73 723.72 723.71 723.71 723.54 723.55 723.56 723.57 723.57 723.58 723.58 723.58 723.59 723.59 723.59 723.59 723.6 723.6 723.6 723.6 723.6 723.6 723.6 723.59 723.59 723.59 723.59 723.58 723.58 723.57 723.57 723.56 723.55 723.55 723.4 723.41 723.41 723.42 723.42 723.43 723.43 723.43 723.43 723.44 723.44 723.44 723.44 723.44 723.44 723.44 723.44 723.44 723.44 723.44 723.44 723.43 723.43 723.43 723.43 723.43 723.42 723.42 723.41 723.41 723.28 723.28 723.29 723.29 723.29 723.29 723.3 723.3 723.3 723.3 723.3 723.3 723.3 723.3 723.3 723.3 723.3 723.3 723.3 723.3 723.3 723.3 723.3 723.3 723.3 723.29 723.29 723.29 723.29 723.28 723.19 723.19 723.19 723.19 723.19 723.19 723.19 723.19 723.19 723.19 723.19 723.19 723.19 723.19 723.19 723.2 723.19 723.19 723.19 723.19 723.19 723.19 723.19 723.19 723.19 723.19 723.19 723.19 723.19 723.19 724.74 724.75 724.76 724.77 724.77 724.78 724.78 724.79 724.79 724.79 724.79 724.79 724.79 724.79 724.79 724.79 724.79 724.79 724.79 724.8 724.8 724.8 724.8 724.79 724.79 724.79 724.79 724.78 724.77 724.77 724.62 724.62 724.63 724.64 724.64 724.65 724.65 724.65 724.66 724.66 724.66 724.66 724.66 724.66 724.65 724.66 724.66 724.66 724.66 724.66 724.66 724.66 724.66 724.66 724.66 724.66 724.65 724.65 724.64 724.64 724.44 724.44 724.45 724.46 724.46 724.47 724.47 724.47 724.47 724.47 724.47 724.47 724.47 724.47 724.47 724.47 724.47 724.47 724.47 724.48 724.48 724.48 724.48 724.48 724.48 724.47 724.47 724.47 724.46 724.46 724.25 724.25 724.26 724.27 724.27 724.27 724.28 724.28 724.28 724.28 724.28 724.28 724.28 724.28 724.28 724.28 724.28 724.28 724.28 724.28 724.29 724.29 724.29 724.29 724.28 724.28 724.28 724.27 724.27 724.27 724.07 724.08 724.08 724.09 724.09 724.1 724.1 724.1 724.1 724.1 724.1 724.1 724.1 724.1 724.1 724.1 724.1 724.11 724.11 724.11 724.11 724.11 724.11 724.11 724.1 724.1 724.1 724.09 724.09 724.09 723.91 723.92 723.92 723.93 723.93 723.93 723.94 723.94 723.94 723.94 723.94 723.94 723.94 723.95 723.95 723.95 723.95 723.95 723.95 723.95 723.95 723.94 723.94 723.94 723.94 723.94 723.94 723.93 723.93 723.93 723.77 723.77 723.78 723.78 723.79 723.79 723.79 723.79 723.8 723.8 723.8 723.8 723.8 723.8 723.8 723.8 723.8 723.8 723.8 723.8 723.8 723.8 723.8 723.8 723.79 723.79 723.79 723.79 723.78 723.78 723.64 723.64 723.65 723.65 723.66 723.66 723.66 723.67 723.67 723.67 723.67 723.67 723.68 723.68 723.68 723.68 723.68 723.68 723.68 723.67 723.67 723.67 723.67 723.67 723.66 723.66 723.66 723.65 723.65 723.65 723.53 723.53 723.53 723.54 723.54 723.54 723.55 723.55 723.55 723.56 723.56 723.56 723.56 723.56 723.56 723.56 723.56 723.56 723.56 723.56 723.56 723.56 723.55 723.55 723.55 723.55 723.54 723.54 723.53 723.53 723.43 723.43 723.43 723.44 723.44 723.45 723.45 723.45 723.45 723.46 723.46 723.46 723.46 723.46 723.46 723.46 723.46 723.46 723.46 723.46 723.46 723.45 723.45 723.45 723.45 723.44 723.44 723.44 723.43 723.43 723.34 723.34 723.35 723.35 723.36 723.36 723.36 723.36 723.37 723.37 723.37 723.37 723.37 723.37 723.37 723.37 723.37 723.37 723.37 723.37 723.37 723.37 723.36 723.36 723.36 723.36 723.35 723.35 723.35 723.35 723.27 723.27 723.28 723.28 723.28 723.29 723.29 723.29 723.29 723.29 723.29 723.3 723.3 723.3 723.3 723.3 723.3 723.3 723.3 723.29 723.29 723.29 723.29 723.29 723.29 723.29 723.28 723.28 723.28 723.28 723.22 723.22 723.22 723.23 723.23 723.23 723.23 723.23 723.23 723.23 723.23 723.23 723.23 723.23 723.24 723.24 723.24 723.23 723.23 723.23 723.23 723.23 723.23 723.23 723.23 723.23 723.23 723.22 723.22 723.22 723.18 723.18 723.18 723.18 723.19 723.19 723.19 723.19 723.19 723.19 723.19 723.19 723.19 723.19 723.19 723.19 723.19 723.19 723.19 723.19 723.19 723.19 723.19 723.19 723.19 723.19 723.18 723.18 723.18 723.18 723.16 723.16 723.16 723.16 723.16 723.16 723.16 723.16 723.16 723.16 723.16 723.16 723.16 723.16 723.16 723.16 723.16 723.16 723.16 723.16 723.16 723.16 723.16 723.16 723.16 723.16 723.16 723.16 723.16 723.16 724.23 724.23 724.23 724.24 724.24 724.24 724.25 724.25 724.25 724.25 724.25 724.25 724.25 724.25 724.25 724.25 724.25 724.25 724.25 724.26 724.26 724.26 724.26 724.26 724.26 724.25 724.25 724.25 724.25 724.24 724.11 724.11 724.11 724.12 724.12 724.12 724.13 724.13 724.13 724.13 724.13 724.13 724.12 724.12 724.12 724.12 724.12 724.13 724.13 724.13 724.13 724.13 724.13 724.13 724.13 724.13 724.13 724.13 724.13 724.13 723.95 723.95 723.95 723.96 723.96 723.96 723.96 723.96 723.96 723.96 723.96 723.96 723.96 723.96 723.96 723.96 723.96 723.96 723.96 723.96 723.97 723.97 723.97 723.97 723.97 723.97 723.97 723.97 723.96 723.96 723.79 723.79 723.79 723.79 723.8 723.8 723.8 723.8 723.8 723.8 723.8 723.8 723.8 723.8 723.8 723.8 723.8 723.8 723.8 723.8 723.8 723.81 723.81 723.81 723.81 723.81 723.8 723.8 723.8 723.8 723.65 723.65 723.65 723.65 723.66 723.66 723.66 723.66 723.66 723.66 723.66 723.66 723.66 723.66 723.66 723.66 723.66 723.66 723.66 723.66 723.66 723.66 723.66 723.66 723.66 723.66 723.66 723.66 723.66 723.66 723.53 723.53 723.54 723.54 723.54 723.54 723.54 723.54 723.54 723.55 723.55 723.55 723.55 723.55 723.55 723.55 723.55 723.55 723.55 723.55 723.55 723.55 723.55 723.55 723.55 723.55 723.54 723.54 723.54 723.54 723.44 723.44 723.44 723.44 723.44 723.45 723.45 723.45 723.45 723.45 723.45 723.45 723.45 723.45 723.45 723.45 723.45 723.45 723.45 723.45 723.45 723.45 723.45 723.45 723.45 723.45 723.45 723.45 723.44 723.45 723.36 723.36 723.36 723.37 723.37 723.37 723.37 723.37 723.37 723.37 723.37 723.38 723.38 723.38 723.38 723.38 723.38 723.38 723.38 723.38 723.38 723.37 723.37 723.37 723.37 723.37 723.37 723.37 723.37 723.37 723.3 723.3 723.3 723.3 723.3 723.31 723.31 723.31 723.31 723.31 723.31 723.31 723.31 723.31 723.32 723.32 723.32 723.31 723.31 723.31 723.31 723.31 723.31 723.31 723.31 723.31 723.31 723.3 723.3 723.3 723.25 723.25 723.25 723.25 723.26 723.26 723.26 723.26 723.26 723.26 723.26 723.26 723.26 723.26 723.27 723.27 723.27 723.26 723.26 723.26 723.26 723.26 723.26 723.26 723.26 723.26 723.26 723.25 723.25 723.25 723.21 723.21 723.22 723.22 723.22 723.22 723.22 723.22 723.22 723.22 723.22 723.22 723.22 723.23 723.23 723.23 723.23 723.23 723.22 723.22 723.22 723.22 723.22 723.22 723.22 723.22 723.22 723.22 723.22 723.22 723.19 723.19 723.19 723.19 723.19 723.19 723.19 723.19 723.19 723.19 723.19 723.19 723.19 723.2 723.2 723.2 723.2 723.2 723.19 723.19 723.19 723.19 723.19 723.19 723.19 723.19 723.19 723.19 723.19 723.19 723.17 723.17 723.17 723.17 723.17 723.17 723.17 723.17 723.17 723.17 723.17 723.17 723.17 723.17 723.17 723.17 723.17 723.17 723.17 723.17 723.17 723.17 723.17 723.17 723.17 723.17 723.17 723.17 723.17 723.17 723.16 723.16 723.16 723.16 723.16 723.16 723.16 723.16 723.16 723.16 723.16 723.16 723.16 723.16 723.16 723.16 723.16 723.16 723.16 723.16 723.16 723.16 723.16 723.16 723.16 723.16 723.16 723.16 723.16 723.16 723.15 723.15 723.15 723.15 723.15 723.15 723.15 723.15 723.15 723.15 723.15 723.15 723.15 723.15 723.15 723.15 723.15 723.15 723.15 723.15 723.15 723.15 723.15 723.15 723.15 723.15 723.15 723.15 723.15 723.15 723.88 723.88 723.88 723.88 723.88 723.89 723.89 723.89 723.89 723.89 723.89 723.89 723.88 723.88 723.88 723.88 723.89 723.89 723.89 723.89 723.89 723.89 723.89 723.89 723.89 723.89 723.89 723.89 723.89 723.89 723.78 723.78 723.78 723.78 723.78 723.78 723.78 723.78 723.78 723.78 723.78 723.78 723.78 723.78 723.78 723.78 723.78 723.78 723.78 723.78 723.78 723.79 723.79 723.79 723.79 723.79 723.79 723.79 723.79 723.79 723.64 723.64 723.64 723.64 723.65 723.65 723.65 723.65 723.64 723.64 723.64 723.64 723.64 723.64 723.64 723.64 723.64 723.64 723.64 723.65 723.65 723.65 723.65 723.65 723.65 723.65 723.65 723.65 723.65 723.65 723.52 723.52 723.52 723.52 723.52 723.52 723.52 723.52 723.52 723.52 723.52 723.52 723.52 723.52 723.51 723.52 723.52 723.52 723.52 723.52 723.52 723.52 723.52 723.52 723.52 723.52 723.52 723.52 723.52 723.53 723.42 723.42 723.42 723.42 723.42 723.42 723.42 723.42 723.42 723.42 723.42 723.42 723.42 723.42 723.42 723.42 723.42 723.42 723.42 723.42 723.42 723.42 723.42 723.42 723.42 723.42 723.42 723.42 723.42 723.42 723.34 723.34 723.34 723.34 723.34 723.34 723.34 723.34 723.34 723.34 723.34 723.34 723.34 723.34 723.34 723.34 723.34 723.34 723.34 723.34 723.34 723.34 723.34 723.34 723.34 723.34 723.34 723.34 723.34 723.34 723.28 723.28 723.28 723.28 723.28 723.28 723.28 723.28 723.28 723.28 723.28 723.28 723.28 723.28 723.28 723.28 723.28 723.29 723.29 723.29 723.29 723.28 723.28 723.28 723.28 723.28 723.28 723.28 723.28 723.28 723.24 723.24 723.24 723.24 723.24 723.24 723.24 723.24 723.24 723.24 723.24 723.24 723.24 723.24 723.24 723.24 723.24 723.24 723.24 723.24 723.24 723.24 723.24 723.24 723.24 723.24 723.24 723.24 723.24 723.24 723.21 723.21 723.21 723.21 723.21 723.21 723.21 723.21 723.21 723.21 723.21 723.21 723.21 723.21 723.21 723.21 723.21 723.21 723.21 723.21 723.21 723.21 723.21 723.21 723.21 723.21 723.21 723.21 723.21 723.21 723.19 723.19 723.19 723.19 723.19 723.19 723.19 723.19 723.19 723.19 723.19 723.19 723.19 723.19 723.19 723.19 723.19 723.19 723.19 723.19 723.19 723.19 723.19 723.19 723.19 723.19 723.19 723.19 723.19 723.19 723.17 723.17 723.17 723.17 723.17 723.17 723.17 723.17 723.17 723.17 723.17 723.17 723.17 723.17 723.17 723.17 723.17 723.17 723.17 723.17 723.17 723.17 723.17 723.17 723.17 723.17 723.17 723.17 723.17 723.17 723.16 723.16 723.16 723.16 723.16 723.16 723.16 723.16 723.16 723.16 723.16 723.16 723.16 723.16 723.16 723.16 723.16 723.16 723.16 723.16 723.16 723.16 723.16 723.16 723.16 723.16 723.16 723.16 723.16 723.16 723.15 723.15 723.16 723.16 723.16 723.16 723.16 723.16 723.16 723.16 723.16 723.16 723.16 723.16 723.16 723.16 723.16 723.16 723.16 723.16 723.16 723.16 723.16 723.16 723.16 723.16 723.16 723.16 723.16 723.15 723.15 723.15 723.15 723.15 723.15 723.15 723.15 723.15 723.15 723.15 723.15 723.15 723.15 723.15 723.15 723.15 723.15 723.15 723.15 723.15 723.15 723.15 723.15 723.15 723.15 723.15 723.15 723.15 723.15 723.15 723.15 723.15 723.15 723.15 723.15 723.15 723.15 723.15 723.15 723.15 723.15 723.15 723.15 723.15 723.15 723.15 723.15 723.15 723.15 723.15 723.15 723.15 723.15 723.15 723.15 723.15 723.15 723.15 723.15 723.15 723.67 723.67 723.67 723.67 723.67 723.67 723.67 723.67 723.67 723.67 723.67 723.67 723.67 723.67 723.66 723.66 723.67 723.67 723.67 723.67 723.67 723.67 723.67 723.67 723.67 723.68 723.68 723.68 723.68 723.68 723.59 723.58 723.58 723.58 723.58 723.58 723.58 723.58 723.58 723.58 723.58 723.58 723.57 723.57 723.57 723.57 723.57 723.58 723.58 723.58 723.58 723.58 723.58 723.58 723.59 723.59 723.59 723.59 723.59 723.59 723.47 723.47 723.47 723.47 723.47 723.47 723.47 723.47 723.47 723.47 723.47 723.46 723.46 723.46 723.46 723.46 723.46 723.46 723.47 723.47 723.47 723.47 723.47 723.47 723.47 723.47 723.48 723.48 723.48 723.48 723.37 723.37 723.37 723.37 723.37 723.37 723.37 723.37 723.37 723.37 723.37 723.37 723.37 723.37 723.36 723.36 723.37 723.37 723.37 723.37 723.37 723.37 723.37 723.37 723.37 723.37 723.38 723.38 723.38 723.38 723.3 723.3 723.3 723.3 723.3 723.3 723.3 723.3 723.3 723.3 723.29 723.29 723.29 723.29 723.29 723.29 723.29 723.29 723.3 723.3 723.3 723.3 723.3 723.3 723.3 723.3 723.3 723.3 723.3 723.3 723.25 723.25 723.25 723.25 723.25 723.25 723.24 723.24 723.24 723.24 723.24 723.24 723.24 723.24 723.24 723.24 723.24 723.24 723.24 723.25 723.25 723.25 723.25 723.25 723.25 723.25 723.25 723.25 723.25 723.25 723.21 723.21 723.21 723.21 723.21 723.21 723.21 