# vtk DataFile Version 2.0
Unstructured Grid Example
ASCII
DATASET UNSTRUCTURED_GRID
POINTS 2601 float
0.0 0.0 0.0
0.0 0.2 0.0
0.0 0.4 0.0
0.0 0.6 0.0
0.0 0.8 0.0
0.0 1.0 0.0
0.0 1.2 0.0
0.0 1.4 0.0
0.0 1.6 0.0
0.0 1.8 0.0
0.0 2.0 0.0
0.0 2.2 0.0
0.0 2.4 0.0
0.0 2.6 0.0
0.0 2.8 0.0
0.0 3.0 0.0
0.0 3.2 0.0
0.0 3.4 0.0
0.0 3.6 0.0
0.0 3.8 0.0
0.0 4.0 0.0
0.0 4.2 0.0
0.0 4.4 0.0
0.0 4.6 0.0
0.0 4.8 0.0
0.0 5.0 0.0
0.0 5.2 0.0
0.0 5.4 0.0
0.0 5.6 0.0
0.0 5.8 0.0
0.0 6.0 0.0
0.0 6.2 0.0
0.0 6.4 0.0
0.0 6.6 0.0
0.0 6.8 0.0
0.0 7.0 0.0
0.0 7.2 0.0
0.0 7.4 0.0
0.0 7.6 0.0
0.0 7.8 0.0
0.0 8.0 0.0
0.0 8.2 0.0
0.0 8.4 0.0
0.0 8.6 0.0
0.0 8.8 0.0
0.0 9.0 0.0
0.0 9.2 0.0
0.0 9.4 0.0
0.0 9.6 0.0
0.0 9.8 0.0
0.0 10.0 0.0
0.2 0.0 0.0
0.2 0.2 0.0
0.2 0.4 0.0
0.2 0.6 0.0
0.2 0.8 0.0
0.2 1.0 0.0
0.2 1.2 0.0
0.2 1.4 0.0
0.2 1.6 0.0
0.2 1.8 0.0
0.2 2.0 0.0
0.2 2.2 0.0
0.2 2.4 0.0
0.2 2.6 0.0
0.2 2.8 0.0
0.2 3.0 0.0
0.2 3.2 0.0
0.2 3.4 0.0
0.2 3.6 0.0
0.2 3.8 0.0
0.2 4.0 0.0
0.2 4.2 0.0
0.2 4.4 0.0
0.2 4.6 0.0
0.2 4.8 0.0
0.2 5.0 0.0
0.2 5.2 0.0
0.2 5.4 0.0
0.2 5.6 0.0
0.2 5.8 0.0
0.2 6.0 0.0
0.2 6.2 0.0
0.2 6.4 0.0
0.2 6.6 0.0
0.2 6.8 0.0
0.2 7.0 0.0
0.2 7.2 0.0
0.2 7.4 0.0
0.2 7.6 0.0
0.2 7.8 0.0
0.2 8.0 0.0
0.2 8.2 0.0
0.2 8.4 0.0
0.2 8.6 0.0
0.2 8.8 0.0
0.2 9.0 0.0
0.2 9.2 0.0
0.2 9.4 0.0
0.2 9.6 0.0
0.2 9.8 0.0
0.2 10.0 0.0
0.4 0.0 0.0
0.4 0.2 0.0
0.4 0.4 0.0
0.4 0.6 0.0
0.4 0.8 0.0
0.4 1.0 0.0
0.4 1.2 0.0
0.4 1.4 0.0
0.4 1.6 0.0
0.4 1.8 0.0
0.4 2.0 0.0
0.4 2.2 0.0
0.4 2.4 0.0
0.4 2.6 0.0
0.4 2.8 0.0
0.4 3.0 0.0
0.4 3.2 0.0
0.4 3.4 0.0
0.4 3.6 0.0
0.4 3.8 0.0
0.4 4.0 0.0
0.4 4.2 0.0
0.4 4.4 0.0
0.4 4.6 0.0
0.4 4.8 0.0
0.4 5.0 0.0
0.4 5.2 0.0
0.4 5.4 0.0
0.4 5.6 0.0
0.4 5.8 0.0
0.4 6.0 0.0
0.4 6.2 0.0
0.4 6.4 0.0
0.4 6.6 0.0
0.4 6.8 0.0
0.4 7.0 0.0
0.4 7.2 0.0
0.4 7.4 0.0
0.4 7.6 0.0
0.4 7.8 0.0
0.4 8.0 0.0
0.4 8.2 0.0
0.4 8.4 0.0
0.4 8.6 0.0
0.4 8.8 0.0
0.4 9.0 0.0
0.4 9.2 0.0
0.4 9.4 0.0
0.4 9.6 0.0
0.4 9.8 0.0
0.4 10.0 0.0
0.6 0.0 0.0
0.6 0.2 0.0
0.6 0.4 0.0
0.6 0.6 0.0
0.6 0.8 0.0
0.6 1.0 0.0
0.6 1.2 0.0
0.6 1.4 0.0
0.6 1.6 0.0
0.6 1.8 0.0
0.6 2.0 0.0
0.6 2.2 0.0
0.6 2.4 0.0
0.6 2.6 0.0
0.6 2.8 0.0
0.6 3.0 0.0
0.6 3.2 0.0
0.6 3.4 0.0
0.6 3.6 0.0
0.6 3.8 0.0
0.6 4.0 0.0
0.6 4.2 0.0
0.6 4.4 0.0
0.6 4.6 0.0
0.6 4.8 0.0
0.6 5.0 0.0
0.6 5.2 0.0
0.6 5.4 0.0
0.6 5.6 0.0
0.6 5.8 0.0
0.6 6.0 0.0
0.6 6.2 0.0
0.6 6.4 0.0
0.6 6.6 0.0
0.6 6.8 0.0
0.6 7.0 0.0
0.6 7.2 0.0
0.6 7.4 0.0
0.6 7.6 0.0
0.6 7.8 0.0
0.6 8.0 0.0
0.6 8.2 0.0
0.6 8.4 0.0
0.6 8.6 0.0
0.6 8.8 0.0
0.6 9.0 0.0
0.6 9.2 0.0
0.6 9.4 0.0
0.6 9.6 0.0
0.6 9.8 0.0
0.6 10.0 0.0
0.8 0.0 0.0
0.8 0.2 0.0
0.8 0.4 0.0
0.8 0.6 0.0
0.8 0.8 0.0
0.8 1.0 0.0
0.8 1.2 0.0
0.8 1.4 0.0
0.8 1.6 0.0
0.8 1.8 0.0
0.8 2.0 0.0
0.8 2.2 0.0
0.8 2.4 0.0
0.8 2.6 0.0
0.8 2.8 0.0
0.8 3.0 0.0
0.8 3.2 0.0
0.8 3.4 0.0
0.8 3.6 0.0
0.8 3.8 0.0
0.8 4.0 0.0
0.8 4.2 0.0
0.8 4.4 0.0
0.8 4.6 0.0
0.8 4.8 0.0
0.8 5.0 0.0
0.8 5.2 0.0
0.8 5.4 0.0
0.8 5.6 0.0
0.8 5.8 0.0
0.8 6.0 0.0
0.8 6.2 0.0
0.8 6.4 0.0
0.8 6.6 0.0
0.8 6.8 0.0
0.8 7.0 0.0
0.8 7.2 0.0
0.8 7.4 0.0
0.8 7.6 0.0
0.8 7.8 0.0
0.8 8.0 0.0
0.8 8.2 0.0
0.8 8.4 0.0
0.8 8.6 0.0
0.8 8.8 0.0
0.8 9.0 0.0
0.8 9.2 0.0
0.8 9.4 0.0
0.8 9.6 0.0
0.8 9.8 0.0
0.8 10.0 0.0
1.0 0.0 0.0
1.0 0.2 0.0
1.0 0.4 0.0
1.0 0.6 0.0
1.0 0.8 0.0
1.0 1.0 0.0
1.0 1.2 0.0
1.0 1.4 0.0
1.0 1.6 0.0
1.0 1.8 0.0
1.0 2.0 0.0
1.0 2.2 0.0
1.0 2.4 0.0
1.0 2.6 0.0
1.0 2.8 0.0
1.0 3.0 0.0
1.0 3.2 0.0
1.0 3.4 0.0
1.0 3.6 0.0
1.0 3.8 0.0
1.0 4.0 0.0
1.0 4.2 0.0
1.0 4.4 0.0
1.0 4.6 0.0
1.0 4.8 0.0
1.0 5.0 0.0
1.0 5.2 0.0
1.0 5.4 0.0
1.0 5.6 0.0
1.0 5.8 0.0
1.0 6.0 0.0
1.0 6.2 0.0
1.0 6.4 0.0
1.0 6.6 0.0
1.0 6.8 0.0
1.0 7.0 0.0
1.0 7.2 0.0
1.0 7.4 0.0
1.0 7.6 0.0
1.0 7.8 0.0
1.0 8.0 0.0
1.0 8.2 0.0
1.0 8.4 0.0
1.0 8.6 0.0
1.0 8.8 0.0
1.0 9.0 0.0
1.0 9.2 0.0
1.0 9.4 0.0
1.0 9.6 0.0
1.0 9.8 0.0
1.0 10.0 0.0
1.2 0.0 0.0
1.2 0.2 0.0
1.2 0.4 0.0
1.2 0.6 0.0
1.2 0.8 0.0
1.2 1.0 0.0
1.2 1.2 0.0
1.2 1.4 0.0
1.2 1.6 0.0
1.2 1.8 0.0
1.2 2.0 0.0
1.2 2.2 0.0
1.2 2.4 0.0
1.2 2.6 0.0
1.2 2.8 0.0
1.2 3.0 0.0
1.2 3.2 0.0
1.2 3.4 0.0
1.2 3.6 0.0
1.2 3.8 0.0
1.2 4.0 0.0
1.2 4.2 0.0
1.2 4.4 0.0
1.2 4.6 0.0
1.2 4.8 0.0
1.2 5.0 0.0
1.2 5.2 0.0
1.2 5.4 0.0
1.2 5.6 0.0
1.2 5.8 0.0
1.2 6.0 0.0
1.2 6.2 0.0
1.2 6.4 0.0
1.2 6.6 0.0
1.2 6.8 0.0
1.2 7.0 0.0
1.2 7.2 0.0
1.2 7.4 0.0
1.2 7.6 0.0
1.2 7.8 0.0
1.2 8.0 0.0
1.2 8.2 0.0
1.2 8.4 0.0
1.2 8.6 0.0
1.2 8.8 0.0
1.2 9.0 0.0
1.2 9.2 0.0
1.2 9.4 0.0
1.2 9.6 0.0
1.2 9.8 0.0
1.2 10.0 0.0
1.4 0.0 0.0
1.4 0.2 0.0
1.4 0.4 0.0
1.4 0.6 0.0
1.4 0.8 0.0
1.4 1.0 0.0
1.4 1.2 0.0
1.4 1.4 0.0
1.4 1.6 0.0
1.4 1.8 0.0
1.4 2.0 0.0
1.4 2.2 0.0
1.4 2.4 0.0
1.4 2.6 0.0
1.4 2.8 0.0
1.4 3.0 0.0
1.4 3.2 0.0
1.4 3.4 0.0
1.4 3.6 0.0
1.4 3.8 0.0
1.4 4.0 0.0
1.4 4.2 0.0
1.4 4.4 0.0
1.4 4.6 0.0
1.4 4.8 0.0
1.4 5.0 0.0
1.4 5.2 0.0
1.4 5.4 0.0
1.4 5.6 0.0
1.4 5.8 0.0
1.4 6.0 0.0
1.4 6.2 0.0
1.4 6.4 0.0
1.4 6.6 0.0
1.4 6.8 0.0
1.4 7.0 0.0
1.4 7.2 0.0
1.4 7.4 0.0
1.4 7.6 0.0
1.4 7.8 0.0
1.4 8.0 0.0
1.4 8.2 0.0
1.4 8.4 0.0
1.4 8.6 0.0
1.4 8.8 0.0
1.4 9.0 0.0
1.4 9.2 0.0
1.4 9.4 0.0
1.4 9.6 0.0
1.4 9.8 0.0
1.4 10.0 0.0
1.6 0.0 0.0
1.6 0.2 0.0
1.6 0.4 0.0
1.6 0.6 0.0
1.6 0.8 0.0
1.6 1.0 0.0
1.6 1.2 0.0
1.6 1.4 0.0
1.6 1.6 0.0
1.6 1.8 0.0
1.6 2.0 0.0
1.6 2.2 0.0
1.6 2.4 0.0
1.6 2.6 0.0
1.6 2.8 0.0
1.6 3.0 0.0
1.6 3.2 0.0
1.6 3.4 0.0
1.6 3.6 0.0
1.6 3.8 0.0
1.6 4.0 0.0
1.6 4.2 0.0
1.6 4.4 0.0
1.6 4.6 0.0
1.6 4.8 0.0
1.6 5.0 0.0
1.6 5.2 0.0
1.6 5.4 0.0
1.6 5.6 0.0
1.6 5.8 0.0
1.6 6.0 0.0
1.6 6.2 0.0
1.6 6.4 0.0
1.6 6.6 0.0
1.6 6.8 0.0
1.6 7.0 0.0
1.6 7.2 0.0
1.6 7.4 0.0
1.6 7.6 0.0
1.6 7.8 0.0
1.6 8.0 0.0
1.6 8.2 0.0
1.6 8.4 0.0
1.6 8.6 0.0
1.6 8.8 0.0
1.6 9.0 0.0
1.6 9.2 0.0
1.6 9.4 0.0
1.6 9.6 0.0
1.6 9.8 0.0
1.6 10.0 0.0
1.8 0.0 0.0
1.8 0.2 0.0
1.8 0.4 0.0
1.8 0.6 0.0
1.8 0.8 0.0
1.8 1.0 0.0
1.8 1.2 0.0
1.8 1.4 0.0
1.8 1.6 0.0
1.8 1.8 0.0
1.8 2.0 0.0
1.8 2.2 0.0
1.8 2.4 0.0
1.8 2.6 0.0
1.8 2.8 0.0
1.8 3.0 0.0
1.8 3.2 0.0
1.8 3.4 0.0
1.8 3.6 0.0
1.8 3.8 0.0
1.8 4.0 0.0
1.8 4.2 0.0
1.8 4.4 0.0
1.8 4.6 0.0
1.8 4.8 0.0
1.8 5.0 0.0
1.8 5.2 0.0
1.8 5.4 0.0
1.8 5.6 0.0
1.8 5.8 0.0
1.8 6.0 0.0
1.8 6.2 0.0
1.8 6.4 0.0
1.8 6.6 0.0
1.8 6.8 0.0
1.8 7.0 0.0
1.8 7.2 0.0
1.8 7.4 0.0
1.8 7.6 0.0
1.8 7.8 0.0
1.8 8.0 0.0
1.8 8.2 0.0
1.8 8.4 0.0
1.8 8.6 0.0
1.8 8.8 0.0
1.8 9.0 0.0
1.8 9.2 0.0
1.8 9.4 0.0
1.8 9.6 0.0
1.8 9.8 0.0
1.8 10.0 0.0
2.0 0.0 0.0
2.0 0.2 0.0
2.0 0.4 0.0
2.0 0.6 0.0
2.0 0.8 0.0
2.0 1.0 0.0
2.0 1.2 0.0
2.0 1.4 0.0
2.0 1.6 0.0
2.0 1.8 0.0
2.0 2.0 0.0
2.0 2.2 0.0
2.0 2.4 0.0
2.0 2.6 0.0
2.0 2.8 0.0
2.0 3.0 0.0
2.0 3.2 0.0
2.0 3.4 0.0
2.0 3.6 0.0
2.0 3.8 0.0
2.0 4.0 0.0
2.0 4.2 0.0
2.0 4.4 0.0
2.0 4.6 0.0
2.0 4.8 0.0
2.0 5.0 0.0
2.0 5.2 0.0
2.0 5.4 0.0
2.0 5.6 0.0
2.0 5.8 0.0
2.0 6.0 0.0
2.0 6.2 0.0
2.0 6.4 0.0
2.0 6.6 0.0
2.0 6.8 0.0
2.0 7.0 0.0
2.0 7.2 0.0
2.0 7.4 0.0
2.0 7.6 0.0
2.0 7.8 0.0
2.0 8.0 0.0
2.0 8.2 0.0
2.0 8.4 0.0
2.0 8.6 0.0
2.0 8.8 0.0
2.0 9.0 0.0
2.0 9.2 0.0
2.0 9.4 0.0
2.0 9.6 0.0
2.0 9.8 0.0
2.0 10.0 0.0
2.2 0.0 0.0
2.2 0.2 0.0
2.2 0.4 0.0
2.2 0.6 0.0
2.2 0.8 0.0
2.2 1.0 0.0
2.2 1.2 0.0
2.2 1.4 0.0
2.2 1.6 0.0
2.2 1.8 0.0
2.2 2.0 0.0
2.2 2.2 0.0
2.2 2.4 0.0
2.2 2.6 0.0
2.2 2.8 0.0
2.2 3.0 0.0
2.2 3.2 0.0
2.2 3.4 0.0
2.2 3.6 0.0
2.2 3.8 0.0
2.2 4.0 0.0
2.2 4.2 0.0
2.2 4.4 0.0
2.2 4.6 0.0
2.2 4.8 0.0
2.2 5.0 0.0
2.2 5.2 0.0
2.2 5.4 0.0
2.2 5.6 0.0
2.2 5.8 0.0
2.2 6.0 0.0
2.2 6.2 0.0
2.2 6.4 0.0
2.2 6.6 0.0
2.2 6.8 0.0
2.2 7.0 0.0
2.2 7.2 0.0
2.2 7.4 0.0
2.2 7.6 0.0
2.2 7.8 0.0
2.2 8.0 0.0
2.2 8.2 0.0
2.2 8.4 0.0
2.2 8.6 0.0
2.2 8.8 0.0
2.2 9.0 0.0
2.2 9.2 0.0
2.2 9.4 0.0
2.2 9.6 0.0
2.2 9.8 0.0
2.2 10.0 0.0
2.4 0.0 0.0
2.4 0.2 0.0
2.4 0.4 0.0
2.4 0.6 0.0
2.4 0.8 0.0
2.4 1.0 0.0
2.4 1.2 0.0
2.4 1.4 0.0
2.4 1.6 0.0
2.4 1.8 0.0
2.4 2.0 0.0
2.4 2.2 0.0
2.4 2.4 0.0
2.4 2.6 0.0
2.4 2.8 0.0
2.4 3.0 0.0
2.4 3.2 0.0
2.4 3.4 0.0
2.4 3.6 0.0
2.4 3.8 0.0
2.4 4.0 0.0
2.4 4.2 0.0
2.4 4.4 0.0
2.4 4.6 0.0
2.4 4.8 0.0
2.4 5.0 0.0
2.4 5.2 0.0
2.4 5.4 0.0
2.4 5.6 0.0
2.4 5.8 0.0
2.4 6.0 0.0
2.4 6.2 0.0
2.4 6.4 0.0
2.4 6.6 0.0
2.4 6.8 0.0
2.4 7.0 0.0
2.4 7.2 0.0
2.4 7.4 0.0
2.4 7.6 0.0
2.4 7.8 0.0
2.4 8.0 0.0
2.4 8.2 0.0
2.4 8.4 0.0
2.4 8.6 0.0
2.4 8.8 0.0
2.4 9.0 0.0
2.4 9.2 0.0
2.4 9.4 0.0
2.4 9.6 0.0
2.4 9.8 0.0
2.4 10.0 0.0
2.6 0.0 0.0
2.6 0.2 0.0
2.6 0.4 0.0
2.6 0.6 0.0
2.6 0.8 0.0
2.6 1.0 0.0
2.6 1.2 0.0
2.6 1.4 0.0
2.6 1.6 0.0
2.6 1.8 0.0
2.6 2.0 0.0
2.6 2.2 0.0
2.6 2.4 0.0
2.6 2.6 0.0
2.6 2.8 0.0
2.6 3.0 0.0
2.6 3.2 0.0
2.6 3.4 0.0
2.6 3.6 0.0
2.6 3.8 0.0
2.6 4.0 0.0
2.6 4.2 0.0
2.6 4.4 0.0
2.6 4.6 0.0
2.6 4.8 0.0
2.6 5.0 0.0
2.6 5.2 0.0
2.6 5.4 0.0
2.6 5.6 0.0
2.6 5.8 0.0
2.6 6.0 0.0
2.6 6.2 0.0
2.6 6.4 0.0
2.6 6.6 0.0
2.6 6.8 0.0
2.6 7.0 0.0
2.6 7.2 0.0
2.6 7.4 0.0
2.6 7.6 0.0
2.6 7.8 0.0
2.6 8.0 0.0
2.6 8.2 0.0
2.6 8.4 0.0
2.6 8.6 0.0
2.6 8.8 0.0
2.6 9.0 0.0
2.6 9.2 0.0
2.6 9.4 0.0
2.6 9.6 0.0
2.6 9.8 0.0
2.6 10.0 0.0
2.8 0.0 0.0
2.8 0.2 0.0
2.8 0.4 0.0
2.8 0.6 0.0
2.8 0.8 0.0
2.8 1.0 0.0
2.8 1.2 0.0
2.8 1.4 0.0
2.8 1.6 0.0
2.8 1.8 0.0
2.8 2.0 0.0
2.8 2.2 0.0
2.8 2.4 0.0
2.8 2.6 0.0
2.8 2.8 0.0
2.8 3.0 0.0
2.8 3.2 0.0
2.8 3.4 0.0
2.8 3.6 0.0
2.8 3.8 0.0
2.8 4.0 0.0
2.8 4.2 0.0
2.8 4.4 0.0
2.8 4.6 0.0
2.8 4.8 0.0
2.8 5.0 0.0
2.8 5.2 0.0
2.8 5.4 0.0
2.8 5.6 0.0
2.8 5.8 0.0
2.8 6.0 0.0
2.8 6.2 0.0
2.8 6.4 0.0
2.8 6.6 0.0
2.8 6.8 0.0
2.8 7.0 0.0
2.8 7.2 0.0
2.8 7.4 0.0
2.8 7.6 0.0
2.8 7.8 0.0
2.8 8.0 0.0
2.8 8.2 0.0
2.8 8.4 0.0
2.8 8.6 0.0
2.8 8.8 0.0
2.8 9.0 0.0
2.8 9.2 0.0
2.8 9.4 0.0
2.8 9.6 0.0
2.8 9.8 0.0
2.8 10.0 0.0
3.0 0.0 0.0
3.0 0.2 0.0
3.0 0.4 0.0
3.0 0.6 0.0
3.0 0.8 0.0
3.0 1.0 0.0
3.0 1.2 0.0
3.0 1.4 0.0
3.0 1.6 0.0
3.0 1.8 0.0
3.0 2.0 0.0
3.0 2.2 0.0
3.0 2.4 0.0
3.0 2.6 0.0
3.0 2.8 0.0
3.0 3.0 0.0
3.0 3.2 0.0
3.0 3.4 0.0
3.0 3.6 0.0
3.0 3.8 0.0
3.0 4.0 0.0
3.0 4.2 0.0
3.0 4.4 0.0
3.0 4.6 0.0
3.0 4.8 0.0
3.0 5.0 0.0
3.0 5.2 0.0
3.0 5.4 0.0
3.0 5.6 0.0
3.0 5.8 0.0
3.0 6.0 0.0
3.0 6.2 0.0
3.0 6.4 0.0
3.0 6.6 0.0
3.0 6.8 0.0
3.0 7.0 0.0
3.0 7.2 0.0
3.0 7.4 0.0
3.0 7.6 0.0
3.0 7.8 0.0
3.0 8.0 0.0
3.0 8.2 0.0
3.0 8.4 0.0
3.0 8.6 0.0
3.0 8.8 0.0
3.0 9.0 0.0
3.0 9.2 0.0
3.0 9.4 0.0
3.0 9.6 0.0
3.0 9.8 0.0
3.0 10.0 0.0
3.2 0.0 0.0
3.2 0.2 0.0
3.2 0.4 0.0
3.2 0.6 0.0
3.2 0.8 0.0
3.2 1.0 0.0
3.2 1.2 0.0
[...]
POINT_DATA 2601
SCALARS Scalars0 float 1
LOOKUP_TABLE default
0.0279611569917 0.00878269007954 -0.0133307113551 -0.0357861435961 -0.0559636096412 -0.0715609794091 -0.0808693545148 -0.082943199899 -0.0776503542183 -0.0656080230581 -0.0480282069117 -0.026507027178 -0.0027959914178 0.0214101133514 0.0446425338954 0.0657701467461 0.0840498496412 0.0991218273698 0.110962190988 0.119808370566 0.126072358427 0.130254338851 0.132865497407 0.134364912901 0.135112183977 0.135335283237 0.135112183977 0.134364912901 0.132865497407 0.130254338851 0.126072358427 0.119808370566 0.110962190988 0.0991218273698 0.0840498496412 0.0657701467461 0.0446425338954 0.0214101133514 -0.0027959914178 -0.026507027178 -0.0480282069117 -0.0656080230581 -0.0776503542183 -0.082943199899 -0.0808693545148 -0.0715609794091 -0.0559636096412 -0.0357861435961 -0.0133307113551 0.00878269007954 0.0279611569917 0.00878269007954 -0.0143202418394 -0.0377564758819 -0.0585281325622 -0.0739791930398 -0.0821432888113 -0.0819682540875 -0.0733923649872 -0.0572743511692 -0.0352032091204 -0.0092304137648 0.018425887379 0.0456577212191 0.0706885110338 0.0922168831386 0.109477180388 0.122224636176 0.130662790662 0.135335283237 0.137003939086 0.136531251351 0.134779535158 0.132532783218 0.130441851825 0.128989837324 0.128472659282 0.128989837324 0.130441851825 0.132532783218 0.134779535158 0.136531251351 0.137003939086 0.135335283237 0.130662790662 0.122224636176 0.109477180388 0.0922168831386 0.0706885110338 0.0456577212191 0.018425887379 -0.0092304137648 -0.0352032091204 -0.0572743511692 -0.0733923649872 -0.0819682540875 -0.0821432888113 -0.0739791930398 -0.0585281325622 -0.0377564758819 -0.0143202418394 0.00878269007954 -0.0133307113551 -0.0377564758819 -0.0593645959909 -0.0750970092643 -0.0826629327427 -0.0808376630886 -0.0695833450029 -0.0499854172957 -0.0240306708097 0.00572277178362 0.0365206338723 0.0657701467461 0.0913289611867 0.111692973191 0.126072358427 0.134364912901 0.137050340609 0.135036658395 0.129490401315 0.121677214806 0.112830930059 0.104059708167 0.0962892963181 0.0902371607194 0.0864077822543 0.0850986306462 0.0864077822543 0.0902371607194 0.0962892963181 0.104059708167 0.112830930059 0.121677214806 0.129490401315 0.135036658395 0.137050340609 0.134364912901 0.126072358427 0.111692973191 0.0913289611867 0.0657701467461 0.0365206338723 0.00572277178362 -0.0240306708097 -0.0499854172957 -0.0695833450029 -0.0808376630886 -0.0826629327427 -0.0750970092643 -0.0593645959909 -0.0377564758819 -0.0133307113551 -0.0357861435961 -0.0585281325622 -0.0750970092643 -0.0827940300026 -0.0801250200137 -0.0669905697642 -0.0446492851175 -0.0154751803055 0.0174349490917 0.0507271147029 0.081246896399 0.106416565265 0.124484453931 0.134626900702 0.136910886448 0.13214728613 0.121677214806 0.10713648543 0.0902371607194 0.0725935055951 0.0556057898166 0.0404024530853 0.0278312681789 0.0184842834895 0.0127394111977 0.0108027842121 0.0127394111977 0.0184842834895 0.0278312681789 0.0404024530853 0.0556057898166 0.0725935055951 0.0902371607194 0.10713648543 0.121677214806 0.13214728613 0.136910886448 0.134626900702 0.124484453931 0.106416565265 0.081246896399 0.0507271147029 0.0174349490917 -0.0154751803055 -0.0446492851175 -0.0669905697642 -0.0801250200137 -0.0827940300026 -0.0750970092643 -0.0585281325622 -0.0357861435961 -0.0559636096412 -0.0739791930398 -0.0826629327427 -0.0801250200137 -0.0660752390675 -0.0418428561771 -0.0101345868167 0.0254128299296 0.0607954549557 0.0922168831386 0.116578987202 0.131817916494 0.137050340609 0.132532783218 0.119468934055 0.0997204367635 0.0754834888713 0.0489876549261 0.0222581493762 -0.00303665472525 -0.0256498264795 -0.0447450216559 -0.0598318796253 -0.0706727411383 -0.0771843878299 -0.0793541815183 -0.0771843878299 -0.0706727411383 -0.0598318796253 -0.0447450216559 -0.0256498264795 -0.00303665472525 0.0222581493762 0.0489876549261 0.0754834888713 0.0997204367635 0.119468934055 0.132532783218 0.137050340609 0.131817916494 0.116578987202 0.0922168831386 0.0607954549557 0.0254128299296 -0.0101345868167 -0.0418428561771 -0.0660752390675 -0.0801250200137 -0.0826629327427 -0.0739791930398 -0.0559636096412 -0.0715609794091 -0.0821432888113 -0.0808376630886 -0.0669905697642 -0.0418428561771 -0.00832236752721 0.029438056096 0.0667587333892 0.0991218273698 0.122804537131 0.135335283237 0.135713625204 0.124384148636 0.103000223145 0.0740463251195 0.0404024530853 0.0049306208247 -0.0298547756455 -0.0619973810267 -0.0901824264419 -0.113708690841 -0.132378868809 -0.146343957087 -0.155935316684 -0.161511387506 -0.163337715526 -0.161511387506 -0.155935316684 -0.146343957087 -0.132378868809 -0.113708690841 -0.0901824264419 -0.0619973810267 -0.0298547756455 0.0049306208247 0.0404024530853 0.0740463251195 0.103000223145 0.124384148636 0.135713625204 0.135335283237 0.122804537131 0.0991218273698 0.0667587333892 0.029438056096 -0.00832236752721 -0.0418428561771 -0.0669905697642 -0.0808376630886 -0.0821432888113 -0.0715609794091 -0.0808693545148 -0.0819682540875 -0.0695833450029 -0.0446492851175 -0.0101345868167 0.029438056096 0.0687287415469 0.102430327823 0.126072358427 0.136638400946 0.132902036987 0.115448050866 0.0864077822543 0.0489876549261 0.0068981894628 -0.0362060521618 -0.0771843878299 -0.113708690841 -0.144384815163 -0.168713542257 -0.186931664366 -0.199784055102 -0.208275395859 -0.213439578296 -0.216150767244 -0.216987278697 -0.216150767244 -0.213439578296 -0.208275395859 -0.199784055102 -0.186931664366 -0.168713542257 -0.144384815163 -0.113708690841 -0.0771843878299 -0.0362060521618 0.0068981894628 0.0489876549261 0.0864077822543 0.115448050866 0.132902036987 0.136638400946 0.126072358427 0.102430327823 0.0687287415469 0.029438056096 -0.0101345868167 -0.0446492851175 -0.0695833450029 -0.0819682540875 -0.0808693545148 -0.082943199899 -0.0733923649872 -0.0499854172957 -0.0154751803055 0.0254128299296 0.0667587333892 0.102430327823 0.127078370883 0.136959176507 0.130441851825 0.108128118103 0.0725935055951 0.0278312681789 -0.0214706834309 -0.0706727411383 -0.115814944231 -0.154045698619 -0.183809794636 -0.204809254732 -0.217789446608 -0.224222703807 -0.225961867979 -0.224921159134 -0.222818938189 -0.220993981728 -0.220289857975 -0.220993981728 -0.222818938189 -0.224921159134 -0.225961867979 -0.224222703807 -0.217789446608 -0.204809254732 -0.183809794636 -0.154045698619 -0.115814944231 -0.0706727411383 -0.0214706834309 0.0278312681789 0.0725935055951 0.108128118103 0.130441851825 0.136959176507 0.127078370883 0.102430327823 0.0667587333892 0.0254128299296 -0.0154751803055 -0.0499854172957 -0.0733923649872 -0.082943199899 -0.0776503542183 -0.0572743511692 -0.0240306708097 0.0174349490917 0.0607954549557 0.0991218273698 0.126072358427 0.136959176507 0.129490401315 0.104059708167 0.0635528242223 0.0127394111977 -0.042603538561 -0.0966504222032 -0.144384815163 -0.182215319742 -0.208275395859 -0.222406429542 -0.225885127692 -0.220993981728 -0.210542268521 -0.197428185919 -0.184299496462 -0.173332120213 -0.16611396243 -0.163601734527 -0.16611396243 -0.173332120213 -0.184299496462 -0.197428185919 -0.210542268521 -0.220993981728 -0.225885127692 -0.222406429542 -0.208275395859 -0.182215319742 -0.144384815163 -0.0966504222032 -0.042603538561 0.0127394111977 0.0635528242223 0.104059708167 0.129490401315 0.136959176507 0.126072358427 0.0991218273698 0.0607954549557 0.0174349490917 -0.0240306708097 -0.0572743511692 -0.0776503542183 -0.0656080230581 -0.0352032091204 0.00572277178362 0.0507271147029 0.0922168831386 0.122804537131 0.136638400946 0.130441851825 0.104059708167 0.0604182395511 0.0049306208247 -0.0555070521525 -0.113708690841 -0.163337715526 -0.199784055102 -0.220645945518 -0.225781303244 -0.216986601385 -0.197428185919 -0.170979193546 -0.141603671273 -0.112887620549 -0.0877602891698 -0.0683947736975 -0.0562376287807 -0.0520989923529 -0.0562376287807 -0.0683947736975 -0.0877602891698 -0.112887620549 -0.141603671273 -0.170979193546 -0.197428185919 -0.216986601385 -0.225781303244 -0.220645945518 -0.199784055102 -0.163337715526 -0.113708690841 -0.0555070521525 0.0049306208247 0.0604182395511 0.104059708167 0.130441851825 0.136638400946 0.122804537131 0.0922168831386 0.0507271147029 0.00572277178362 -0.0352032091204 -0.0656080230581 -0.0480282069117 -0.0092304137648 0.0365206338723 0.081246896399 0.116578987202 0.135335283237 0.132902036987 0.108128118103 0.0635528242223 0.0049306208247 -0.0598318796253 -0.122089915653 -0.1739254478 -0.209370701996 -0.225172054599 -0.220993981728 -0.199093086677 -0.163601734527 -0.119624600484 -0.0723589532218 -0.0264063901557 0.0146314870869 0.0482640037221 0.0729882813687 0.0880322756556 0.0930741325562 0.0880322756556 0.0729882813687 0.0482640037221 0.0146314870869 -0.0264063901557 -0.0723589532218 -0.119624600484 -0.163601734527 -0.199093086677 -0.220993981728 -0.225172054599 -0.209370701996 -0.1739254478 -0.122089915653 -0.0598318796253 0.0049306208247 0.0635528242223 0.108128118103 0.132902036987 0.135335283237 0.116578987202 0.081246896399 0.0365206338723 -0.0092304137648 -0.0480282069117 -0.026507027178 0.018425887379 0.0657701467461 0.106416565265 0.131817916494 0.135713625204 0.115448050866 0.0725935055951 0.0127394111977 -0.0555070521525 -0.122089915653 -0.177303111256 -0.213439578296 -0.225961867979 -0.213990477809 -0.180071958467 -0.129351644933 -0.0683947736975 -0.00394806299488 0.0580939163031 0.113340983546 0.159118202559 0.194285734259 0.218794894094 0.233138970719 0.237847735838 0.233138970719 0.218794894094 0.194285734259 0.159118202559 0.113340983546 0.0580939163031 -0.00394806299488 -0.0683947736975 -0.129351644933 -0.180071958467 -0.213990477809 -0.225961867979 -0.213439578296 -0.177303111256 -0.122089915653 -0.0555070521525 0.0127394111977 0.0725935055951 0.115448050866 0.135713625204 0.131817916494 0.106416565265 0.0657701467461 0.018425887379 -0.026507027178 -0.0027959914178 0.0456577212191 0.0913289611867 0.124484453931 0.137050340609 0.124384148636 0.0864077822543 0.0278312681789 -0.042603538561 -0.113708690841 -0.1739254478 -0.213439578296 -0.225885127692 -0.209291337058 -0.16611396243 -0.10240995937 -0.0264063901557 0.0531681966133 0.128605117784 0.194285734259 0.247143589344 0.286526627888 0.313602139007 0.330518977396 0.339544889397 0.342350253824 0.339544889397 0.330518977396 0.313602139007 0.286526627888 0.247143589344 0.194285734259 0.128605117784 0.0531681966133 -0.0264063901557 -0.10240995937 -0.16611396243 -0.209291337058 -0.225885127692 -0.213439578296 -0.1739254478 -0.113708690841 -0.042603538561 0.0278312681789 0.0864077822543 0.124384148636 0.137050340609 0.124484453931 0.0913289611867 0.0456577212191 -0.0027959914178 0.0214101133514 0.0706885110338 0.111692973191 0.134626900702 0.132532783218 0.103000223145 0.0489876549261 -0.0214706834309 -0.0966504222032 -0.163337715526 -0.209370701996 -0.225961867979 -0.209291337058 -0.161036504997 -0.0877602891698 0.00064838735882 0.0930741325562 0.179305954199 0.251726326249 0.306240458463 0.342350253824 0.362496549111 0.370943917466 0.37252833546 0.371534900554 0.370863601215 0.371534900554 0.37252833546 0.370943917466 0.362496549111 0.342350253824 0.306240458463 0.251726326249 0.179305954199 0.0930741325562 0.00064838735882 -0.0877602891698 -0.161036504997 -0.209291337058 -0.225961867979 -0.209370701996 -0.163337715526 -0.0966504222032 -0.0214706834309 0.0489876549261 0.103000223145 0.132532783218 0.134626900702 0.111692973191 0.0706885110338 0.0214101133514 0.0446425338954 0.0922168831386 0.126072358427 0.136910886448 0.119468934055 0.0740463251195 0.0068981894628 -0.0706727411383 -0.144384815163 -0.199784055102 -0.225172054599 -0.213990477809 -0.16611396243 -0.0877602891698 0.00993908796967 0.113340983546 0.209071484156 0.286526627888 0.339544889397 0.366957017302 0.372034349405 0.361134728472 0.341999384863 0.322144381398 0.307640217468 0.302363728012 0.307640217468 0.322144381398 0.341999384863 0.361134728472 0.372034349405 0.366957017302 0.339544889397 0.286526627888 0.209071484156 0.113340983546 0.00993908796967 -0.0877602891698 -0.16611396243 -0.213990477809 -0.225172054599 -0.199784055102 -0.144384815163 -0.0706727411383 0.0068981894628 0.0740463251195 0.119468934055 0.136910886448 0.126072358427 0.0922168831386 0.0446425338954 0.0657701467461 0.109477180388 0.134364912901 0.13214728613 0.0997204367635 0.0404024530853 -0.0362060521618 -0.115814944231 -0.182215319742 -0.220645945518 -0.220993981728 -0.180071958467 -0.10240995937 0.00064838735882 0.113340983546 0.218794894094 0.302442364013 0.354731075222 0.372528239324 0.358996083748 0.322144381398 0.272607651408 0.221336991308 0.177792855002 0.148923568572 0.138850283523 0.148923568572 0.177792855002 0.221336991308 0.272607651408 0.322144381398 0.358996083748 0.372528239324 0.354731075222 0.302442364013 0.218794894094 0.113340983546 0.00064838735882 -0.10240995937 -0.180071958467 -0.220993981728 -0.220645945518 -0.182215319742 -0.115814944231 -0.0362060521618 0.0404024530853 0.0997204367635 0.13214728613 0.134364912901 0.109477180388 0.0657701467461 0.0840498496412 0.122224636176 0.137050340609 0.121677214806 0.0754834888713 0.0049306208247 -0.0771843878299 -0.154045698619 -0.208275395859 -0.225781303244 -0.199093086677 -0.129351644933 -0.0264063901557 0.0930741325562 0.209071484156 0.302442364013 0.358864331282 0.371534900554 0.341999384863 0.279012491027 0.195900537769 0.107304824189 0.026302960165 -0.0373348371255 -0.0775194542827 -0.0912082800709 -0.0775194542827 -0.0373348371255 0.026302960165 0.107304824189 0.195900537769 0.279012491027 0.341999384863 0.371534900554 0.358864331282 0.302442364013 0.209071484156 0.0930741325562 -0.0264063901557 -0.129351644933 -0.199093086677 -0.225781303244 -0.208275395859 -0.154045698619 -0.0771843878299 0.0049306208247 0.0754834888713 0.121677214806 0.137050340609 0.122224636176 0.0840498496412 0.0991218273698 0.130662790662 0.135036658395 0.10713648543 0.0489876549261 -0.0298547756455 -0.113708690841 -0.183809794636 -0.222406429542 -0.216986601385 -0.163601734527 -0.0683947736975 0.0531681966133 0.179305954199 0.286526627888 0.354731075222 0.371534900554 0.33469443921 0.252017980478 0.138850283523 0.0139363543868 -0.105031349423 -0.20479365734 -0.277857578516 -0.321626086605 -0.336108842565 -0.321626086605 -0.277857578516 -0.20479365734 -0.105031349423 0.0139363543868 0.138850283523 0.252017980478 0.33469443921 0.371534900554 0.354731075222 0.286526627888 0.179305954199 0.0531681966133 -0.0683947736975 -0.163601734527 -0.216986601385 -0.222406429542 -0.183809794636 -0.113708690841 -0.0298547756455 0.0489876549261 0.10713648543 0.135036658395 0.130662790662 0.0991218273698 0.110962190988 0.135335283237 0.129490401315 0.0902371607194 0.0222581493762 -0.0619973810267 -0.144384815163 -0.204809254732 -0.225885127692 -0.197428185919 -0.119624600484 -0.00394806299488 0.128605117784 0.251726326249 0.339544889397 0.372528239324 0.341999384863 0.252017980478 0.118038788672 -0.0373348371255 -0.190290525889 -0.321626086605 -0.42057119154 -0.485333787203 -0.520281473723 -0.531096756938 -0.520281473723 -0.485333787203 -0.42057119154 -0.321626086605 -0.190290525889 -0.0373348371255 0.118038788672 0.252017980478 0.341999384863 0.372528239324 0.339544889397 0.251726326249 0.128605117784 -0.00394806299488 -0.119624600484 -0.197428185919 -0.225885127692 -0.204809254732 -0.144384815163 -0.0619973810267 0.0222581493762 0.0902371607194 0.129490401315 0.135335283237 0.110962190988 0.119808370566 0.137003939086 0.121677214806 0.0725935055951 -0.00303665472525 -0.0901824264419 -0.168713542257 -0.217789446608 -0.220993981728 -0.170979193546 -0.0723589532218 0.0580939163031 0.194285734259 0.306240458463 0.366957017302 0.358996083748 0.279012491027 0.138850283523 -0.0373348371255 -0.219350649936 -0.378983086282 -0.497367685361 -0.569260307671 -0.602500490267 -0.612529335852 -0.613904099673 -0.612529335852 -0.602500490267 -0.569260307671 -0.497367685361 -0.378983086282 -0.219350649936 -0.0373348371255 0.138850283523 0.279012491027 0.358996083748 0.366957017302 0.306240458463 0.194285734259 0.0580939163031 -0.0723589532218 -0.170979193546 -0.220993981728 -0.217789446608 -0.168713542257 -0.0901824264419 -0.00303665472525 0.0725935055951 0.121677214806 0.137003939086 0.119808370566 0.126072358427 0.136531251351 0.112830930059 0.0556057898166 -0.0256498264795 -0.113708690841 -0.186931664366 -0.224222703807 -0.210542268521 -0.141603671273 -0.0264063901557 0.113340983546 0.247143589344 0.342350253824 0.372034349405 0.322144381398 0.195900537769 0.0139363543868 -0.190290525889 -0.378983086282 -0.520281473723 -0.597372173572 -0.613346015614 -0.589526112788 -0.556802990569 -0.542300307782 -0.556802990569 -0.589526112788 -0.613346015614 -0.597372173572 -0.520281473723 -0.378983086282 -0.190290525889 0.0139363543868 0.195900537769 0.322144381398 0.372034349405 0.342350253824 0.247143589344 0.113340983546 -0.0264063901557 -0.141603671273 -0.210542268521 -0.224222703807 -0.186931664366 -0.113708690841 -0.0256498264795 0.0556057898166 0.112830930059 0.136531251351 0.126072358427 0.130254338851 0.134779535158 0.104059708167 0.0404024530853 -0.0447450216559 -0.132378868809 -0.199784055102 -0.225961867979 -0.197428185919 -0.112887620549 0.0146314870869 0.159118202559 0.286526627888 0.362496549111 0.361134728472 0.272607651408 0.107304824189 -0.105031349423 -0.321626086605 -0.497367685361 -0.597372173572 -0.607946220947 -0.542300307782 -0.438118598642 -0.345796498904 -0.309179221066 -0.345796498904 -0.438118598642 -0.542300307782 -0.607946220947 -0.597372173572 -0.497367685361 -0.321626086605 -0.105031349423 0.107304824189 0.272607651408 0.361134728472 0.362496549111 0.286526627888 0.159118202559 0.0146314870869 -0.112887620549 -0.197428185919 -0.225961867979 -0.199784055102 -0.132378868809 -0.0447450216559 0.0404024530853 0.104059708167 0.134779535158 0.130254338851 0.132865497407 0.132532783218 0.0962892963181 0.0278312681789 -0.0598318796253 -0.146343957087 -0.208275395859 -0.224921159134 -0.184299496462 -0.0877602891698 0.0482640037221 0.194285734259 0.313602139007 0.370943917466 0.341999384863 0.221336991308 0.026302960165 -0.20479365734 -0.42057119154 -0.569260307671 -0.613346015614 -0.542300307782 -0.379383203535 -0.179270304707 -0.0145487025571 0.0493927734254 -0.0145487025571 -0.179270304707 -0.379383203535 -0.542300307782 -0.613346015614 -0.569260307671 -0.42057119154 -0.20479365734 0.026302960165 0.221336991308 0.341999384863 0.370943917466 0.313602139007 0.194285734259 0.0482640037221 -0.0877602891698 -0.184299496462 -0.224921159134 -0.208275395859 -0.146343957087 -0.0598318796253 0.0278312681789 0.0962892963181 0.132532783218 0.132865497407 0.134364912901 0.130441851825 0.0902371607194 0.0184842834895 -0.0706727411383 -0.155935316684 -0.213439578296 -0.222818938189 -0.173332120213 -0.0683947736975 0.0729882813687 0.218794894094 0.330518977396 0.37252833546 0.322144381398 0.177792855002 -0.0373348371255 -0.277857578516 -0.485333787203 -0.602500490267 -0.589526112788 -0.438118598642 -0.179270304707 0.118446414065 0.361327184734 0.45660147613 0.361327184734 0.118446414065 -0.179270304707 -0.438118598642 -0.589526112788 -0.602500490267 -0.485333787203 -0.277857578516 -0.0373348371255 0.177792855002 0.322144381398 0.37252833546 0.330518977396 0.218794894094 0.0729882813687 -0.0683947736975 -0.173332120213 -0.222818938189 -0.213439578296 -0.155935316684 -0.0706727411383 0.0184842834895 0.0902371607194 0.130441851825 0.134364912901 0.135112183977 0.128989837324 0.0864077822543 0.0127394111977 -0.0771843878299 -0.161511387506 -0.216150767244 -0.220993981728 -0.16611396243 -0.0562376287807 0.0880322756556 0.233138970719 0.339544889397 0.371534900554 0.307640217468 0.148923568572 -0.0775194542827 -0.321626086605 -0.520281473723 -0.612529335852 -0.556802990569 -0.345796498904 -0.0145487025571 0.361327184734 0.676736963433 0.808933021052 0.676736963433 0.361327184734 -0.0145487025571 -0.345796498904 -0.556802990569 -0.612529335852 -0.520281473723 -0.321626086605 -0.07751945428