# vtk DataFile Version 2.0
Unstructured Grid Example
ASCII
DATASET UNSTRUCTURED_GRID
POINTS 4 float
0.0 0.0 0.0
0.0 0.3 0.0
0.5 0.0 0.0
0.5 0.3 0.0
CELLS 1 5
4 0 2 3 1
CELL_TYPES 1
9
POINT_DATA 4
SCALARS Scalars0 float 1
LOOKUP_TABLE default
-0.0480282069117 -0.0480282069117 -0.0480282069117 -0.0480282069117