# vtk DataFile Version 2.0
Unstructured Grid Example
ASCII
DATASET UNSTRUCTURED_GRID
POINTS 25 float
0.0 0.0 0.0
0.0 0.075 0.0
0.0 0.15 0.0
0.0 0.225 0.0
0.0 0.3 0.0
0.125 0.0 0.0
0.125 0.075 0.0
0.125 0.15 0.0
0.125 0.225 0.0
0.125 0.3 0.0
0.25 0.0 0.0
0.25 0.075 0.0
0.25 0.15 0.0
0.25 0.225 0.0
0.25 0.3 0.0
0.375 0.0 0.0
0.375 0.075 0.0
0.375 0.15 0.0
0.375 0.225 0.0
0.375 0.3 0.0
0.5 0.0 0.0
0.5 0.075 0.0
0.5 0.15 0.0
0.5 0.225 0.0
0.5 0.3 0.0
CELLS 16 80
4 0 5 6 1
4 1 6 7 2
4 2 7 8 3
4 3 8 9 4
4 5 10 11 6
4 6 11 12 7
4 7 12 13 8
4 8 13 14 9
4 10 15 16 11
4 11 16 17 12
4 12 17 18 13
4 13 18 19 14
4 15 20 21 16
4 16 21 22 17
4 17 22 23 18
4 18 23 24 19
CELL_TYPES 16
9 9 9 9 9 9 9 9 9 9 9 9 9 9 9 9
POINT_DATA 25
SCALARS Scalars0 float 1
LOOKUP_TABLE default
0.0 0 0 0.0 0 1.43488304678 0.844531311064 0.552348218173 0.4071992682 0.362844040251 1.6602817822 1.1437985448 0.774210350458 0.574900065488 0.51287896356 1.43488304678 0.844531311064 0.552348218173 0.4071992682 0.362844040251 0 0 0 0 0