# vtk DataFile Version 2.0
Unstructured Grid Example
ASCII
DATASET UNSTRUCTURED_GRID
POINTS 164 float
0.0 4.5 0.0
0.0 5.0 0.0
0.0 5.5 0.0
0.0 6.0 0.0
0.25 4.5 0.0
0.25 5.0 0.0
0.25 5.5 0.0
0.25 6.0 0.0
0.5 4.5 0.0
0.5 5.0 0.0
0.5 5.5 0.0
0.5 6.0 0.0
0.75 4.5 0.0
0.75 5.0 0.0
0.75 5.5 0.0
0.75 6.0 0.0
1.0 4.5 0.0
1.0 5.0 0.0
1.0 5.5 0.0
1.0 6.0 0.0
1.25 4.5 0.0
1.25 5.0 0.0
1.25 5.5 0.0
1.25 6.0 0.0
1.5 4.5 0.0
1.5 5.0 0.0
1.5 5.5 0.0
1.5 6.0 0.0
1.75 4.5 0.0
1.75 5.0 0.0
1.75 5.5 0.0
1.75 6.0 0.0
2.0 4.5 0.0
2.0 5.0 0.0
2.0 5.5 0.0
2.0 6.0 0.0
2.25 4.5 0.0
2.25 5.0 0.0
2.25 5.5 0.0
2.25 6.0 0.0
2.5 4.5 0.0
2.5 5.0 0.0
2.5 5.5 0.0
2.5 6.0 0.0
2.75 4.5 0.0
2.75 5.0 0.0
2.75 5.5 0.0
2.75 6.0 0.0
3.0 4.5 0.0
3.0 5.0 0.0
3.0 5.5 0.0
3.0 6.0 0.0
3.25 4.5 0.0
3.25 5.0 0.0
3.25 5.5 0.0
3.25 6.0 0.0
3.5 4.5 0.0
3.5 5.0 0.0
3.5 5.5 0.0
3.5 6.0 0.0
3.75 4.5 0.0
3.75 5.0 0.0
3.75 5.5 0.0
3.75 6.0 0.0
4.0 4.5 0.0
4.0 5.0 0.0
4.0 5.5 0.0
4.0 6.0 0.0
4.25 4.5 0.0
4.25 5.0 0.0
4.25 5.5 0.0
4.25 6.0 0.0
4.5 4.5 0.0
4.5 5.0 0.0
4.5 5.5 0.0
4.5 6.0 0.0
4.75 4.5 0.0
4.75 5.0 0.0
4.75 5.5 0.0
4.75 6.0 0.0
5.0 4.5 0.0
5.0 5.0 0.0
5.0 5.5 0.0
5.0 6.0 0.0
5.25 4.5 0.0
5.25 5.0 0.0
5.25 5.5 0.0
5.25 6.0 0.0
5.5 4.5 0.0
5.5 5.0 0.0
5.5 5.5 0.0
5.5 6.0 0.0
5.75 4.5 0.0
5.75 5.0 0.0
5.75 5.5 0.0
5.75 6.0 0.0
6.0 4.5 0.0
6.0 5.0 0.0
6.0 5.5 0.0
6.0 6.0 0.0
6.25 4.5 0.0
6.25 5.0 0.0
6.25 5.5 0.0
6.25 6.0 0.0
6.5 4.5 0.0
6.5 5.0 0.0
6.5 5.5 0.0
6.5 6.0 0.0
6.75 4.5 0.0
6.75 5.0 0.0
6.75 5.5 0.0
6.75 6.0 0.0
7.0 4.5 0.0
7.0 5.0 0.0
7.0 5.5 0.0
7.0 6.0 0.0
7.25 4.5 0.0
7.25 5.0 0.0
7.25 5.5 0.0
7.25 6.0 0.0
7.5 4.5 0.0
7.5 5.0 0.0
7.5 5.5 0.0
7.5 6.0 0.0
7.75 4.5 0.0
7.75 5.0 0.0
7.75 5.5 0.0
7.75 6.0 0.0
8.0 4.5 0.0
8.0 5.0 0.0
8.0 5.5 0.0
8.0 6.0 0.0
8.25 4.5 0.0
8.25 5.0 0.0
8.25 5.5 0.0
8.25 6.0 0.0
8.5 4.5 0.0
8.5 5.0 0.0
8.5 5.5 0.0
8.5 6.0 0.0
8.75 4.5 0.0
8.75 5.0 0.0
8.75 5.5 0.0
8.75 6.0 0.0
9.0 4.5 0.0
9.0 5.0 0.0
9.0 5.5 0.0
9.0 6.0 0.0
9.25 4.5 0.0
9.25 5.0 0.0
9.25 5.5 0.0
9.25 6.0 0.0
9.5 4.5 0.0
9.5 5.0 0.0
9.5 5.5 0.0
9.5 6.0 0.0
9.75 4.5 0.0
9.75 5.0 0.0
9.75 5.5 0.0
9.75 6.0 0.0
10.0 4.5 0.0
10.0 5.0 0.0
10.0 5.5 0.0
10.0 6.0 0.0
CELLS 120 600
4 0 4 5 1
4 1 5 6 2
4 2 6 7 3
4 4 8 9 5
4 5 9 10 6
4 6 10 11 7
4 8 12 13 9
4 9 13 14 10
4 10 14 15 11
4 12 16 17 13
4 13 17 18 14
4 14 18 19 15
4 16 20 21 17
4 17 21 22 18
4 18 22 23 19
4 20 24 25 21
4 21 25 26 22
4 22 26 27 23
4 24 28 29 25
4 25 29 30 26
4 26 30 31 27
4 28 32 33 29
4 29 33 34 30
4 30 34 35 31
4 32 36 37 33
4 33 37 38 34
4 34 38 39 35
4 36 40 41 37
4 37 41 42 38
4 38 42 43 39
4 40 44 45 41
4 41 45 46 42
4 42 46 47 43
4 44 48 49 45
4 45 49 50 46
4 46 50 51 47
4 48 52 53 49
4 49 53 54 50
4 50 54 55 51
4 52 56 57 53
4 53 57 58 54
4 54 58 59 55
4 56 60 61 57
4 57 61 62 58
4 58 62 63 59
4 60 64 65 61
4 61 65 66 62
4 62 66 67 63
4 64 68 69 65
4 65 69 70 66
4 66 70 71 67
4 68 72 73 69
4 69 73 74 70
4 70 74 75 71
4 72 76 77 73
4 73 77 78 74
4 74 78 79 75
4 76 80 81 77
4 77 81 82 78
4 78 82 83 79
4 80 84 85 81
4 81 85 86 82
4 82 86 87 83
4 84 88 89 85
4 85 89 90 86
4 86 90 91 87
4 88 92 93 89
4 89 93 94 90
4 90 94 95 91
4 92 96 97 93
4 93 97 98 94
4 94 98 99 95
4 96 100 101 97
4 97 101 102 98
4 98 102 103 99
4 100 104 105 101
4 101 105 106 102
4 102 106 107 103
4 104 108 109 105
4 105 109 110 106
4 106 110 111 107
4 108 112 113 109
4 109 113 114 110
4 110 114 115 111
4 112 116 117 113
4 113 117 118 114
4 114 118 119 115
4 116 120 121 117
4 117 121 122 118
4 118 122 123 119
4 120 124 125 121
4 121 125 126 122
4 122 126 127 123
4 124 128 129 125
4 125 129 130 126
4 126 130 131 127
4 128 132 133 129
4 129 133 134 130
4 130 134 135 131
4 132 136 137 133
4 133 137 138 134
4 134 138 139 135
4 136 140 141 137
4 137 141 142 138
4 138 142 143 139
4 140 144 145 141
4 141 145 146 142
4 142 146 147 143
4 144 148 149 145
4 145 149 150 146
4 146 150 151 147
4 148 152 153 149
4 149 153 154 150
4 150 154 155 151
4 152 156 157 153
4 153 157 158 154
4 154 158 159 155
4 156 160 161 157
4 157 161 162 158
4 158 162 163 159
CELL_TYPES 120
9 9 9 9 9 9 9 9 9 9 9 9 9 9 9 9 9 9 9 9 9 9 9 9 9 9 9 9 9 9 9 9 9 9 9 9 9 9 9 9 9 9 9 9 9 9 9 9 9 9 9 9 9 9 9 9 9 9 9 9 9 9 9 9 9 9 9 9 9 9 9 9 9 9 9 9 9 9 9 9 9 9 9 9 9 9 9 9 9 9 9 9 9 9 9 9 9 9 9 9 9 9 9 9 9 9 9 9 9 9 9 9 9 9 9 9 9 9 9 9
POINT_DATA 164
SCALARS Scalars1 float 1
LOOKUP_TABLE default
0.133615205154 0.135335283237 0.133615205154 0.126072358427 0.121931295271 0.117629152123 0.121931295271 0.130606171028 0.0582105021765 0.0479507074292 0.0582105021765 0.084218359938 -0.0431497888278 -0.0568149400857 -0.0431497888278 -0.00533592240546 -0.151139636886 -0.163337715526 -0.151139636886 -0.113708690841 -0.214110627474 -0.217812923516 -0.214110627474 -0.196254424226 -0.2013429285 -0.191945796251 -0.2013429285 -0.217382486164 -0.10326210066 -0.0799746778964 -0.10326210066 -0.158838320585 0.0606261425454 0.0930741325562 0.0606261425454 -0.0264063901557 0.235420375183 0.263973365334 0.235420375183 0.146791634995 0.346898342332 0.356606927519 0.346898342332 0.294746921584 0.341987943964 0.319488696313 0.341987943964 0.364613325509 0.199564923155 0.138850283523 0.199564923155 0.322144381398 -0.0644683583422 -0.152433420694 -0.0644683583422 0.150409491923 -0.34713905365 -0.433602799751 -0.34713905365 -0.0881770857509 -0.55264842157 -0.593202263989 -0.55264842157 -0.331809946184 -0.601436064201 -0.542300307782 -0.601436064201 -0.520281473723 -0.437488778439 -0.219536222443 -0.437488778439 -0.601365634083 -0.154869349721 0.252997124777 -0.154869349721 -0.601436064201 0.122438944486 0.720850134821 0.122438944486 -0.564983771124 0.252997124777 1.0 0.252997124777 -0.542300307782 0.122438944486 0.720850134821 0.122438944486 -0.564983771124 -0.154869349721 0.252997124777 -0.154869349721 -0.601436064201 -0.437488778439 -0.219536222443 -0.437488778439 -0.601365634083 -0.601436064201 -0.542300307782 -0.601436064201 -0.520281473723 -0.55264842157 -0.593202263989 -0.55264842157 -0.331809946184 -0.34713905365 -0.433602799751 -0.34713905365 -0.0881770857509 -0.0644683583422 -0.152433420694 -0.0644683583422 0.150409491923 0.199564923155 0.138850283523 0.199564923155 0.322144381398 0.341987943964 0.319488696313 0.341987943964 0.364613325509 0.346898342332 0.356606927519 0.346898342332 0.294746921584 0.235420375183 0.263973365334 0.235420375183 0.146791634995 0.0606261425454 0.0930741325562 0.0606261425454 -0.0264063901557 -0.10326210066 -0.0799746778964 -0.10326210066 -0.158838320585 -0.2013429285 -0.191945796251 -0.2013429285 -0.217382486164 -0.214110627474 -0.217812923516 -0.214110627474 -0.196254424226 -0.151139636886 -0.163337715526 -0.151139636886 -0.113708690841 -0.0431497888278 -0.0568149400857 -0.0431497888278 -0.00533592240546 0.0582105021765 0.0479507074292 0.0582105021765 0.084218359938 0.121931295271 0.117629152123 0.121931295271 0.130606171028 0.133615205154 0.135335283237 0.133615205154 0.126072358427