# vtk DataFile Version 2.0
Unstructured Grid Example
ASCII
DATASET UNSTRUCTURED_GRID
POINTS 189 float
0.0 0.0 0.0
0.0 0.125 0.0
0.0 0.25 0.0
0.0 0.375 0.0
0.0 0.5 0.0
0.0 0.625 0.0
0.0 0.75 0.0
0.0 0.875 0.0
0.0 1.0 0.0
0.25 0.0 0.0
0.25 0.125 0.0
0.25 0.25 0.0
0.25 0.375 0.0
0.25 0.5 0.0
0.25 0.625 0.0
0.25 0.75 0.0
0.25 0.875 0.0
0.25 1.0 0.0
0.5 0.0 0.0
0.5 0.125 0.0
0.5 0.25 0.0
0.5 0.375 0.0
0.5 0.5 0.0
0.5 0.625 0.0
0.5 0.75 0.0
0.5 0.875 0.0
0.5 1.0 0.0
0.75 0.0 0.0
0.75 0.125 0.0
0.75 0.25 0.0
0.75 0.375 0.0
0.75 0.5 0.0
0.75 0.625 0.0
0.75 0.75 0.0
0.75 0.875 0.0
0.75 1.0 0.0
1.0 0.0 0.0
1.0 0.125 0.0
1.0 0.25 0.0
1.0 0.375 0.0
1.0 0.5 0.0
1.0 0.625 0.0
1.0 0.75 0.0
1.0 0.875 0.0
1.0 1.0 0.0
1.25 0.0 0.0
1.25 0.125 0.0
1.25 0.25 0.0
1.25 0.375 0.0
1.25 0.5 0.0
1.25 0.625 0.0
1.25 0.75 0.0
1.25 0.875 0.0
1.25 1.0 0.0
1.5 0.0 0.0
1.5 0.125 0.0
1.5 0.25 0.0
1.5 0.375 0.0
1.5 0.5 0.0
1.5 0.625 0.0
1.5 0.75 0.0
1.5 0.875 0.0
1.5 1.0 0.0
1.75 0.0 0.0
1.75 0.125 0.0
1.75 0.25 0.0
1.75 0.375 0.0
1.75 0.5 0.0
1.75 0.625 0.0
1.75 0.75 0.0
1.75 0.875 0.0
1.75 1.0 0.0
2.0 0.0 0.0
2.0 0.125 0.0
2.0 0.25 0.0
2.0 0.375 0.0
2.0 0.5 0.0
2.0 0.625 0.0
2.0 0.75 0.0
2.0 0.875 0.0
2.0 1.0 0.0
2.25 0.0 0.0
2.25 0.125 0.0
2.25 0.25 0.0
2.25 0.375 0.0
2.25 0.5 0.0
2.25 0.625 0.0
2.25 0.75 0.0
2.25 0.875 0.0
2.25 1.0 0.0
2.5 0.0 0.0
2.5 0.125 0.0
2.5 0.25 0.0
2.5 0.375 0.0
2.5 0.5 0.0
2.5 0.625 0.0
2.5 0.75 0.0
2.5 0.875 0.0
2.5 1.0 0.0
2.75 0.0 0.0
2.75 0.125 0.0
2.75 0.25 0.0
2.75 0.375 0.0
2.75 0.5 0.0
2.75 0.625 0.0
2.75 0.75 0.0
2.75 0.875 0.0
2.75 1.0 0.0
3.0 0.0 0.0
3.0 0.125 0.0
3.0 0.25 0.0
3.0 0.375 0.0
3.0 0.5 0.0
3.0 0.625 0.0
3.0 0.75 0.0
3.0 0.875 0.0
3.0 1.0 0.0
3.25 0.0 0.0
3.25 0.125 0.0
3.25 0.25 0.0
3.25 0.375 0.0
3.25 0.5 0.0
3.25 0.625 0.0
3.25 0.75 0.0
3.25 0.875 0.0
3.25 1.0 0.0
3.5 0.0 0.0
3.5 0.125 0.0
3.5 0.25 0.0
3.5 0.375 0.0
3.5 0.5 0.0
3.5 0.625 0.0
3.5 0.75 0.0
3.5 0.875 0.0
3.5 1.0 0.0
3.75 0.0 0.0
3.75 0.125 0.0
3.75 0.25 0.0
3.75 0.375 0.0
3.75 0.5 0.0
3.75 0.625 0.0
3.75 0.75 0.0
3.75 0.875 0.0
3.75 1.0 0.0
4.0 0.0 0.0
4.0 0.125 0.0
4.0 0.25 0.0
4.0 0.375 0.0
4.0 0.5 0.0
4.0 0.625 0.0
4.0 0.75 0.0
4.0 0.875 0.0
4.0 1.0 0.0
4.25 0.0 0.0
4.25 0.125 0.0
4.25 0.25 0.0
4.25 0.375 0.0
4.25 0.5 0.0
4.25 0.625 0.0
4.25 0.75 0.0
4.25 0.875 0.0
4.25 1.0 0.0
4.5 0.0 0.0
4.5 0.125 0.0
4.5 0.25 0.0
4.5 0.375 0.0
4.5 0.5 0.0
4.5 0.625 0.0
4.5 0.75 0.0
4.5 0.875 0.0
4.5 1.0 0.0
4.75 0.0 0.0
4.75 0.125 0.0
4.75 0.25 0.0
4.75 0.375 0.0
4.75 0.5 0.0
4.75 0.625 0.0
4.75 0.75 0.0
4.75 0.875 0.0
4.75 1.0 0.0
5.0 0.0 0.0
5.0 0.125 0.0
5.0 0.25 0.0
5.0 0.375 0.0
5.0 0.5 0.0
5.0 0.625 0.0
5.0 0.75 0.0
5.0 0.875 0.0
5.0 1.0 0.0
CELLS 160 800
4 0 9 10 1
4 1 10 11 2
4 2 11 12 3
4 3 12 13 4
4 4 13 14 5
4 5 14 15 6
4 6 15 16 7
4 7 16 17 8
4 9 18 19 10
4 10 19 20 11
4 11 20 21 12
4 12 21 22 13
4 13 22 23 14
4 14 23 24 15
4 15 24 25 16
4 16 25 26 17
4 18 27 28 19
4 19 28 29 20
4 20 29 30 21
4 21 30 31 22
4 22 31 32 23
4 23 32 33 24
4 24 33 34 25
4 25 34 35 26
4 27 36 37 28
4 28 37 38 29
4 29 38 39 30
4 30 39 40 31
4 31 40 41 32
4 32 41 42 33
4 33 42 43 34
4 34 43 44 35
4 36 45 46 37
4 37 46 47 38
4 38 47 48 39
4 39 48 49 40
4 40 49 50 41
4 41 50 51 42
4 42 51 52 43
4 43 52 53 44
4 45 54 55 46
4 46 55 56 47
4 47 56 57 48
4 48 57 58 49
4 49 58 59 50
4 50 59 60 51
4 51 60 61 52
4 52 61 62 53
4 54 63 64 55
4 55 64 65 56
4 56 65 66 57
4 57 66 67 58
4 58 67 68 59
4 59 68 69 60
4 60 69 70 61
4 61 70 71 62
4 63 72 73 64
4 64 73 74 65
4 65 74 75 66
4 66 75 76 67
4 67 76 77 68
4 68 77 78 69
4 69 78 79 70
4 70 79 80 71
4 72 81 82 73
4 73 82 83 74
4 74 83 84 75
4 75 84 85 76
4 76 85 86 77
4 77 86 87 78
4 78 87 88 79
4 79 88 89 80
4 81 90 91 82
4 82 91 92 83
4 83 92 93 84
4 84 93 94 85
4 85 94 95 86
4 86 95 96 87
4 87 96 97 88
4 88 97 98 89
4 90 99 100 91
4 91 100 101 92
4 92 101 102 93
4 93 102 103 94
4 94 103 104 95
4 95 104 105 96
4 96 105 106 97
4 97 106 107 98
4 99 108 109 100
4 100 109 110 101
4 101 110 111 102
4 102 111 112 103
4 103 112 113 104
4 104 113 114 105
4 105 114 115 106
4 106 115 116 107
4 108 117 118 109
4 109 118 119 110
4 110 119 120 111
4 111 120 121 112
4 112 121 122 113
4 113 122 123 114
4 114 123 124 115
4 115 124 125 116
4 117 126 127 118
4 118 127 128 119
4 119 128 129 120
4 120 129 130 121
4 121 130 131 122
4 122 131 132 123
4 123 132 133 124
4 124 133 134 125
4 126 135 136 127
4 127 136 137 128
4 128 137 138 129
4 129 138 139 130
4 130 139 140 131
4 131 140 141 132
4 132 141 142 133
4 133 142 143 134
4 135 144 145 136
4 136 145 146 137
4 137 146 147 138
4 138 147 148 139
4 139 148 149 140
4 140 149 150 141
4 141 150 151 142
4 142 151 152 143
4 144 153 154 145
4 145 154 155 146
4 146 155 156 147
4 147 156 157 148
4 148 157 158 149
4 149 158 159 150
4 150 159 160 151
4 151 160 161 152
4 153 162 163 154
4 154 163 164 155
4 155 164 165 156
4 156 165 166 157
4 157 166 167 158
4 158 167 168 159
4 159 168 169 160
4 160 169 170 161
4 162 171 172 163
4 163 172 173 164
4 164 173 174 165
4 165 174 175 166
4 166 175 176 167
4 167 176 177 168
4 168 177 178 169
4 169 178 179 170
4 171 180 181 172
4 172 181 182 173
4 173 182 183 174
4 174 183 184 175
4 175 184 185 176
4 176 185 186 177
4 177 186 187 178
4 178 187 188 179
CELL_TYPES 160
9 9 9 9 9 9 9 9 9 9 9 9 9 9 9 9 9 9 9 9 9 9 9 9 9 9 9 9 9 9 9 9 9 9 9 9 9 9 9 9 9 9 9 9 9 9 9 9 9 9 9 9 9 9 9 9 9 9 9 9 9 9 9 9 9 9 9 9 9 9 9 9 9 9 9 9 9 9 9 9 9 9 9 9 9 9 9 9 9 9 9 9 9 9 9 9 9 9 9 9 9 9 9 9 9 9 9 9 9 9 9 9 9 9 9 9 9 9 9 9 9 9 9 9 9 9 9 9 9 9 9 9 9 9 9 9 9 9 9 9 9 9 9 9 9 9 9 9 9 9 9 9 9 9 9 9 9 9 9 9
POINT_DATA 189
VECTORS FID_Displacement float
5.03083542494 -25.7079266513 0.0
3.89224098333 -26.0076260248 0.0
2.55137034793 -26.2107586472 0.0
1.15327335275 -26.3290809268 0.0
-0.270894412592 -26.3722865592 0.0
-1.70933635046 -26.3448040896 0.0
-3.15634678143 -26.2440869138 0.0
-4.60576139306 -26.0578844967 0.0
-6.07761949058 -25.7618840641 0.0
4.96851384506 -23.3390587444 0.0
3.69282339196 -23.4385769862 0.0
2.40295033007 -23.5043174328 0.0
1.07576953169 -23.5421388104 0.0
-0.273388201906 -23.543999386 0.0
-1.63526789884 -23.5051149153 0.0
-3.00307328373 -23.4258378588 0.0
-4.36825811565 -23.3141358006 0.0
-5.68360309636 -23.1944211932 0.0
4.75513268328 -20.7057420341 0.0
3.48850286314 -20.8379289683 0.0
2.24047963838 -20.9177356001 0.0
0.987759460695 -20.9522674593 0.0
-0.27618935523 -20.9490268392 0.0
-1.54758125591 -20.9109105258 0.0
-2.81981520346 -20.8392165517 0.0
-4.08368853459 -20.7334740245 0.0
-5.34937855068 -20.5816039952 0.0
4.48035770919 -18.2454386584 0.0
3.29130639736 -18.3706049342 0.0
2.10421153276 -18.4568868699 0.0
0.919566289051 -18.5015173801 0.0
-0.265925957751 -18.505596555 0.0
-1.45310656117 -18.4712077068 0.0
-2.64055172785 -18.3991067587 0.0
-3.82843470258 -18.2881921655 0.0
-5.01327581364 -18.1405130547 0.0
4.19655799751 -15.9423537104 0.0
3.08495852589 -16.0685518653 0.0
1.97411058634 -16.1550473689 0.0
0.863674437093 -16.2021375735 0.0
-0.246218416869 -16.2096487671 0.0
-1.35591142752 -16.1777424161 0.0
-2.46570889731 -16.1067174746 0.0
-3.57497421681 -15.9970828824 0.0
-4.68374552804 -15.8480919503 0.0
3.91176462869 -13.7971831758 0.0
2.87778091402 -13.9232072711 0.0
1.8437377978 -14.0101088806 0.0
0.809928271384 -14.0577059225 0.0
-0.223652507267 -14.0660194512 0.0
-1.25698776656 -14.0350455786 0.0
-2.29005742202 -13.9648394836 0.0
-3.32300927627 -13.8553262786 0.0
-4.35593884246 -13.7065994549 0.0
3.62750194782 -11.8064506973 0.0
2.67046567635 -11.9325686532 0.0
1.713341246 -12.0194617275 0.0
0.756237207563 -12.0671528868 0.0
-0.200753778245 -12.0756025776 0.0
-1.1576094035 -12.0447934647 0.0
-2.11436274661 -11.9746900507 0.0
-3.07107158026 -11.8652923602 0.0
-4.02786889788 -11.7165655908 0.0
3.34366760586 -9.96919625133 0.0
2.46328527823 -10.0953245627 0.0
1.58285205772 -10.1822183113 0.0
0.702415069754 -10.2298767099 0.0
-0.17799268723 -10.2382945958 0.0
-1.05835636247 -10.2074508283 0.0
-1.9386864159 -10.1373307671 0.0
-2.81902108053 -10.0279186988 0.0
-3.69940595765 -9.87922571195 0.0
3.06001560982 -8.28503518534 0.0
2.25618521716 -8.41117232459 0.0
1.45233786499 -8.4980545648 0.0
0.648483911263 -8.54568689381 0.0
-0.155365891957 -8.55406517897 0.0
-0.959207379499 -8.5231833347 0.0
-1.76304488925 -8.45303307268 0.0
-2.56688843513 -8.34361231782 0.0
-3.37074947397 -8.19492305639 0.0
2.77641726732 -6.75391360025 0.0
2.04911627832 -6.8800510121 0.0
1.32181391963 -6.9669293876 0.0
0.594509561734 -7.01455017867 0.0
-0.132796542106 -7.02291296191 0.0
-0.860104258131 -6.99201483794 0.0
-1.58741369354 -6.92185339862 0.0
-2.3147253252 -6.81242769567 0.0
-3.04203829728 -6.66373977445 0.0
2.49282001003 -5.37583544269 0.0
1.84205053646 -5.50197207798 0.0
1.19128942809 -5.58885067137 0.0
0.540529341818 -5.63647319514 0.0
-0.11023559461 -5.64483784276 0.0
-0.761007099641 -5.6139416386 0.0
-1.41178354458 -5.54378170441 0.0
-2.06255874635 -5.43435619622 0.0
-2.71332580814 -5.28566745851 0.0
2.20919229576 -4.15081780903 0.0
1.63497130452 -4.2769505886 0.0
1.06077008418 -4.36383280878 0.0
0.486567276947 -4.41146362663 0.0
-0.0876515468842 -4.41984044886 0.0
-0.661892724003 -4.38895623965 0.0
-1.23614831731 -4.31880392786 0.0
-1.81040593185 -4.20938237678 0.0
-2.38464337799 -4.06068872701 0.0
1.92548390662 -3.07890957645 0.0
1.42786197431 -3.20503484898 0.0
0.930263330021 -3.29191287286 0.0
0.432642982806 -3.33954529353 0.0
-0.0650232741791 -3.34791906194 0.0
-0.56273825482 -3.3170338469 0.0
-1.06050404488 -3.24688613595 0.0
-1.55828265212 -3.13745760507 0.0
-2.05603834836 -2.98876180599 0.0
1.64164498673 -2.16029483616 0.0
1.22072268952 -2.28639516047 0.0
0.799763141662 -2.37324035598 0.0
0.378732529578 -2.42078604133 0.0
-0.0423756457778 -2.42906957298 0.0
-0.463571870172 -2.39808944568 0.0
-0.88482587188 -2.32786653004 0.0
-1.30619577755 -2.21843948775 0.0
-1.72757503995 -2.06969812499 0.0
1.35784056956 -1.39533923513 0.0
1.01369869171 -1.52148480734 0.0
0.669195577168 -1.60818138364 0.0
0.324567530828 -1.65543253161 0.0
-0.0199974657622 -1.66323041205 0.0
-0.364512183804 -1.63187308539 0.0
-0.709208552983 -1.56142284589 0.0
-1.05395670858 -1.45176871051 0.0
-1.39917333781 -1.3031714935 0.0
1.07497973812 -0.784611898426 0.0
0.807273267444 -0.910700455243 0.0
0.538595706174 -0.997357760279 0.0
0.269435233692 -1.04398280023 0.0
0.000794335064254 -1.05081547602 0.0
-0.266565602603 -1.0179076013 0.0
-0.533206959414 -0.946544045505 0.0
-0.801411279695 -0.837138354722 0.0
-1.06996179914 -0.687882507214 0.0
0.795696659985 -0.326524920657 0.0
0.6028744505 -0.453912821636 0.0
0.407508837953 -0.539907699667 0.0
0.213175969482 -0.586482360571 0.0
0.0193277918018 -0.593189178379 0.0
-0.173657166102 -0.559646927748 0.0
-0.361425960309 -0.483505205077 0.0
-0.54353205949 -0.370183539989 0.0
-0.737181406294 -0.225567798365 0.0
0.523251917115 -0.0180181464609 0.0
0.400023443686 -0.14235990302 0.0
0.280250088196 -0.233603110655 0.0
0.155044036215 -0.282207937518 0.0
0.0334695647565 -0.287637164935 0.0
-0.0804608610275 -0.255820894857 0.0
-0.196049810253 -0.194161472969 0.0
-0.302191495657 -0.0771489478449 0.0
-0.371486889637 0.0933825709582 0.0
0.241810368061 0.160873233315 0.0
0.220684372438 0.0111541209231 0.0
0.158361427924 -0.0767981885063 0.0
0.0885893040223 -0.118454704768 0.0
0.0244208370954 -0.11931187946 0.0
-0.009098067979 -0.0757340095839 0.0
0.0 0.0 0.0
0.0 0.0 0.0
0.0 0.0 0.0
0.0 0.0 0.0
0.0 0.0 0.0
0.0 0.0 0.0
0.0 0.0 0.0
0.0 0.0 0.0
0.0 0.0 0.0
0.135714539567 0.0230652481733 0.0
0.257253821566 0.13787601388 0.0
0.315972454609 0.337594407036 0.0
-0.170743593836 0.0333239618315 0.0
-0.252440787388 -0.0364864521166 0.0
-0.190266110797 -0.0855452771436 0.0
-0.0973420469021 -0.119740957153 0.0
0.00805457765346 -0.147038351102 0.0
0.147638074729 -0.173197701472 0.0
0.296018959338 -0.183685911856 0.0
0.490483544729 -0.195224936134 0.0
0.891130928114 -0.247701809852 0.0
LOOKUP_TABLE coolwarm 3
0 0.231 0.298 1.0
0.4 0.865 0.865 1.0
0.8 0.706 0.016 1.0