# vtk DataFile Version 2.0
Unstructured Grid Example
ASCII
DATASET UNSTRUCTURED_GRID
POINTS 66 float
0.0 0.0 0.0
0.0 0.2 0.0
0.0 0.4 0.0
0.0 0.6000000000000001 0.0
0.0 0.8 0.0
0.0 1.0 0.0
0.5 0.0 0.0
0.5 0.2 0.0
0.5 0.4 0.0
0.5 0.6000000000000001 0.0
0.5 0.8 0.0
0.5 1.0 0.0
1.0 0.0 0.0
1.0 0.2 0.0
1.0 0.4 0.0
1.0 0.6000000000000001 0.0
1.0 0.8 0.0
1.0 1.0 0.0
1.5 0.0 0.0
1.5 0.2 0.0
1.5 0.4 0.0
1.5 0.6000000000000001 0.0
1.5 0.8 0.0
1.5 1.0 0.0
2.0 0.0 0.0
2.0 0.2 0.0
2.0 0.4 0.0
2.0 0.6000000000000001 0.0
2.0 0.8 0.0
2.0 1.0 0.0
2.5 0.0 0.0
2.5 0.2 0.0
2.5 0.4 0.0
2.5 0.6000000000000001 0.0
2.5 0.8 0.0
2.5 1.0 0.0
3.0 0.0 0.0
3.0 0.2 0.0
3.0 0.4 0.0
3.0 0.6000000000000001 0.0
3.0 0.8 0.0
3.0 1.0 0.0
3.5 0.0 0.0
3.5 0.2 0.0
3.5 0.4 0.0
3.5 0.6000000000000001 0.0
3.5 0.8 0.0
3.5 1.0 0.0
4.0 0.0 0.0
4.0 0.2 0.0
4.0 0.4 0.0
4.0 0.6000000000000001 0.0
4.0 0.8 0.0
4.0 1.0 0.0
4.5 0.0 0.0
4.5 0.2 0.0
4.5 0.4 0.0
4.5 0.6000000000000001 0.0
4.5 0.8 0.0
4.5 1.0 0.0
5.0 0.0 0.0
5.0 0.2 0.0
5.0 0.4 0.0
5.0 0.6000000000000001 0.0
5.0 0.8 0.0
5.0 1.0 0.0
CELLS 50 250
4 0 6 7 1
4 1 7 8 2
4 2 8 9 3
4 3 9 10 4
4 4 10 11 5
4 6 12 13 7
4 7 13 14 8
4 8 14 15 9
4 9 15 16 10
4 10 16 17 11
4 12 18 19 13
4 13 19 20 14
4 14 20 21 15
4 15 21 22 16
4 16 22 23 17
4 18 24 25 19
4 19 25 26 20
4 20 26 27 21
4 21 27 28 22
4 22 28 29 23
4 24 30 31 25
4 25 31 32 26
4 26 32 33 27
4 27 33 34 28
4 28 34 35 29
4 30 36 37 31
4 31 37 38 32
4 32 38 39 33
4 33 39 40 34
4 34 40 41 35
4 36 42 43 37
4 37 43 44 38
4 38 44 45 39
4 39 45 46 40
4 40 46 47 41
4 42 48 49 43
4 43 49 50 44
4 44 50 51 45
4 45 51 52 46
4 46 52 53 47
4 48 54 55 49
4 49 55 56 50
4 50 56 57 51
4 51 57 58 52
4 52 58 59 53
4 54 60 61 55
4 55 61 62 56
4 56 62 63 57
4 57 63 64 58
4 58 64 65 59
CELL_TYPES 50
9 9 9 9 9 9 9 9 9 9 9 9 9 9 9 9 9 9 9 9 9 9 9 9 9 9 9 9 9 9 9 9 9 9 9 9 9 9 9 9 9 9 9 9 9 9 9 9 9 9
POINT_DATA 66
SCALARS FID_Temperature double 1
LOOKUP_TABLE default
0.0 0.0 0.0 0.0 0.0 0.0 4.0393636015882715 2.676053169268279 1.7710145236849333 1.0905023926293387 0.5216948862914076 0.0 4.57833307873048 3.5820650336342705 2.5968310208788594 1.6815388460279703 0.8252245010912869 0.0 4.871581719299391 3.846157612542783 2.858700749243531 1.8915474874401874 0.9409208814559743 0.0 4.9476600286879195 3.944157788227306 2.9466294905741393 1.9586990912645144 0.9775879850320445 0.0 4.969355652175882 3.964872372184834 2.9674305198799713 1.9747905295615722 0.9862469527190837 0.0 4.9476600286879195 3.9441577882273045 2.946629490574139 1.958699091264513 0.977587985032044 0.0 4.871581719299391 3.8461576125427834 2.8587007492435306 1.891547487440188 0.9409208814559743 0.0 4.578333078730477 3.5820650336342696 2.596831020878859 1.6815388460279697 0.8252245010912865 0.0 4.0393636015882715 2.676053169268277 1.7710145236849328 1.0905023926293387 0.5216948862914076 0.0 0.0 0.0 0.0 0.0 0.0 0.0
LOOKUP_TABLE coolwarm 3
0 0.231 0.298 1.0
0.4 0.865 0.865 1.0
0.8 0.706 0.016 1.0